/*--------------------------------*- C++ -*----------------------------------*\
| =========                 |                                                 |
| \\      /  F ield         | OpenFOAM: The Open Source CFD Toolbox           |
|  \\    /   O peration     | Version:  5.x                                   |
|   \\  /    A nd           | Web:      www.OpenFOAM.org                      |
|    \\/     M anipulation  |                                                 |
\*---------------------------------------------------------------------------*/
FoamFile
{
    version     2.0;
    format      ascii;
    class       volScalarField;
    location    "2051";
    object      T;
}
// * * * * * * * * * * * * * * * * * * * * * * * * * * * * * * * * * * * * * //

dimensions      [0 0 0 1 0 0 0];

internalField   nonuniform List<scalar> 
250000
(
0.00940746994234
0.00940170684289
0.00939013823016
0.00937268677594
0.00934922901936
0.00931959551479
0.00928357226501
0.00924090303375
0.00919129278555
0.0091344125569
0.0090699059758
0.00899739755413
0.00891650276994
0.00882683982081
0.00872804276606
0.00861977559573
0.00850174658416
0.00837372212729
0.0082355391511
0.00808711513962
0.00792845488509
0.00775965322477
0.00758089329502
0.00739244018679
0.0071946302909
0.00698785694376
0.00677255379344
0.00654917656004
0.00631818504077
0.00608002674414
0.00583512331684
0.00558386096697
0.00532658611576
0.00506360846566
0.00479521801025
0.00452145757484
0.00424222372951
0.00395744872301
0.00366711058305
0.00337124158115
0.00306993615709
0.00276335823906
0.002451747627
0.00213542502038
0.00181479519813
0.00149034772402
0.00116265435764
0.000832362097277
0.000500179961767
0.000166856130572
0.0282339395564
0.0282166788393
0.0281820227314
0.0281297504398
0.0280594920351
0.0279707386665
0.0278628471785
0.0277350467661
0.0275864489629
0.0274160620089
0.0272228102464
0.0270055589329
0.0267631445508
0.0264944102848
0.0261982458411
0.0258736302257
0.025519675538
0.0251356693368
0.024721112773
0.0242757515471
0.0237995968938
0.0232929342858
0.0227563183574
0.0221905536477
0.0215966620169
0.0209758386342
0.0203294007988
0.0196587319438
0.0189652262432
0.0182502382823
0.0175150412009
0.0167607967355
0.0159885399946
0.0151991821721
0.0143935364986
0.0135718287358
0.0127337329629
0.0118790370786
0.0110076667345
0.0101197095523
0.0092154388485
0.00829533579279
0.00736010879142
0.0064107087708
0.00544833882272
0.00447445627225
0.00349076469122
0.00249919269306
0.0015018549337
0.00050100980079
0.0471065064497
0.047077829273
0.0470203099712
0.0469335603144
0.0468169626962
0.0466696680152
0.0464906004161
0.0462784670451
0.0460317739451
0.0457488493206
0.045427875302
0.0450669290108
0.0446640332018
0.0442172160593
0.043724578853
0.0431843691849
0.0425950565479
0.0419554059991
0.0412645450542
0.0405220185896
0.0397278267265
0.038882441459
0.0379867991882
0.0370422682563
0.0360505928282
0.0350138164331
0.0339341924598
0.0328140861848
0.0316558775903
0.0304618729971
0.0292342313351
0.0279749105628
0.0266856379426
0.0253679066838
0.0240230007252
0.022651430962
0.0212526372425
0.0198262472761
0.018372115249
0.0168903626085
0.0153814185033
0.0138460576416
0.0122854333822
0.0107011037462
0.00909504771217
0.00746966859948
0.00582778083476
0.00417257635513
0.00250756844567
0.000836529398077
0.0660810061894
0.0660411525986
0.0659612236923
0.0658406816394
0.0656786607485
0.0654739660734
0.0652250781037
0.0649301644687
0.0645871002158
0.064193498545
0.0637467538151
0.0632440982157
0.0626826727912
0.0620596124932
0.0613721436639
0.0606176908778
0.0597939885058
0.0588991908828
0.0579319737639
0.0568916190922
0.0557780751964
0.0545919855685
0.0533346813994
0.0520081359797
0.0506148826005
0.0491579008042
0.0476404818064
0.0460660806205
0.04443816887
0.0427601007051
0.0410350006584
0.0392656812942
0.0374545951002
0.0356038221363
0.0337150921848
0.0317892812483
0.0298255872717
0.0278234591109
0.0257826535981
0.0237032953692
0.0215859359092
0.0194316085552
0.0172418762835
0.0150188689668
0.0127653064362
0.0104845032406
0.00818035111313
0.00585727681661
0.00352017907714
0.00117437670476
0.0852333346207
0.0851826662582
0.0850810553011
0.0849278113135
0.084721814976
0.0844615139418
0.0841449256869
0.0837696489375
0.0833328859645
0.0828314785333
0.082261960267
0.0816206277276
0.0809036316368
0.0801070883468
0.0792272099472
0.078260449326
0.0772036542232
0.0760542220477
0.0748102452604
0.0734706358357
0.0720352170602
0.0705047720582
0.0688810411002
0.0671666639043
0.0653650683777
0.0634803122915
0.0615168929881
0.0594795368056
0.0573729884858
0.0552018188705
0.0529702639351
0.0506821061121
0.0483406033999
0.0459484669072
0.0435078831105
0.0410201491437
0.0384842131052
0.0358993220765
0.0332651018152
0.0305816390069
0.0278495615933
0.0250701129258
0.0222452155978
0.0193775207363
0.0164704383565
0.0135281444326
0.0105555616873
0.00755831514652
0.00454267424084
0.0015155298497
0.104658347163
0.104597375657
0.104475105533
0.104290688884
0.104042742115
0.103729337118
0.103347999565
0.102895716811
0.102368958736
0.101763715506
0.101075556334
0.100299712863
0.0994311898258
0.0984649040271
0.0973958504998
0.0962192919212
0.094930964176
0.0935272875828
0.0920055701516
0.0903641868387
0.0886027177177
0.0867220288752
0.0847242830753
0.0826128728848
0.0803922765474
0.0780678447182
0.0756455385293
0.0731316367166
0.0705324409207
0.067854005872
0.0651019137877
0.0622811083565
0.0593957953884
0.0564494098817
0.0534446430919
0.0503832492287
0.0472639145065
0.0440856527204
0.0408479123236
0.0375506854021
0.0341946128783
0.0307810806024
0.0273123012612
0.0237913772078
0.0202223395703
0.016610159884
0.0129607334236
0.00928083981612
0.00557810081746
0.00186099690892
0.124469487867
0.124398880715
0.124257283558
0.124043683358
0.123756417457
0.123393157638
0.122950900279
0.122425966377
0.121814016128
0.121110083635
0.120308637592
0.119403673464
0.118388841704
0.117257614736
0.116003492805
0.114620245206
0.11310217909
0.111444423157
0.109643208589
0.107696125357
0.105602329361
0.103362675889
0.100979758337
0.0984578385752
0.0958026661788
0.0930211958962
0.0901212306876
0.0871110171053
0.083998835101
0.0807926215382
0.0774996563642
0.0741263333061
0.070678024389
0.067159036601
0.0635726503556
0.0599210946143
0.0562027719942
0.0524164156994
0.0485612301859
0.0446370326544
0.0406443880902
0.0365847312774
0.0324604698918
0.0282750634309
0.0240330736627
0.0197401841772
0.0154031911047
0.0110299751857
0.00662948133138
0.00221177551448
0.144799127137
0.14471971117
0.14456043625
0.144320114392
0.143996786496
0.143587695881
0.143089265676
0.142497085276
0.141805912237
0.141009697183
0.140101639879
0.139074284587
0.137919662018
0.136629483353
0.135195388829
0.133609249034
0.131863511335
0.129951577003
0.127868187039
0.125609787483
0.123174839391
0.12056403655
0.117780396886
0.114829202773
0.111717780862
0.108455130819
0.105051439163
0.101517518732
0.0978642355517
0.0941019818086
0.0902402389237
0.0862872621903
0.0822498990878
0.0781335367761
0.0739421618786
0.0696784741572
0.0653405522408
0.060926774613
0.0564360028291
0.0518677637609
0.0472224214762
0.0425013308254
0.0377069661882
0.0328430202054
0.0279144690441
0.0229276036379
0.0178900320063
0.0128106665924
0.0076997262166
0.00256882551518
0.165799729276
0.165712492389
0.165537509941
0.165273408825
0.164917915922
0.164467816847
0.163918914743
0.163265995954
0.162502810859
0.161622079863
0.160615535541
0.1594740125
0.158187596124
0.15674583988
0.155138057756
0.153353693502
0.151382761091
0.149216341533
0.146847109914
0.144269854691
0.14148194062
0.138483660036
0.135278417769
0.131872705458
0.128275842496
0.124499490041
0.120556985536
0.116462559519
0.112230527352
0.107874545472
0.103407000011
0.0988385734636
0.0941780045967
0.0894320312344
0.0846054877365
0.0797015081501
0.0747177732829
0.0696521892628
0.0645031267454
0.0592696557736
0.0539517642868
0.0485505509751
0.0430683855897
0.0375090320834
0.0318777324969
0.026181253175
0.0204279011629
0.0146275271322
0.00879154498383
0.00293303990674
0.187645946293
0.187552037224
0.187363639157
0.187079185463
0.186696074458
0.186210608166
0.185617925458
0.184911937987
0.184085279348
0.183129280078
0.182033982977
0.180788214536
0.179379728854
0.1777954397
0.176021753834
0.17404501357
0.171852048172
0.169430821465
0.166771147064
0.16386542384
0.160709325144
0.157302360064
0.153648219281
0.149754827799
0.145634055693
0.141301083408
0.136773482797
0.13207010903
0.127209945903
0.122211044641
0.117089662516
0.111859667883
0.106532228962
0.10111576396
0.0956161045695
0.090036728227
0.0843747867586
0.0786275277479
0.072792609771
0.066868406689
0.0608542860341
0.054750851043
0.048560139652
0.0422857770212
0.0359330813981
0.0295091271914
0.0230227753621
0.016484688458
0.00990735852053
0.00330521580107
0.210537742611
0.210438468865
0.21023926598
0.20993836985
0.209532842687
0.209018485797
0.208389738756
0.207639574905
0.206759405668
0.205739009112
0.204566500999
0.203228369208
0.201709594435
0.199993881052
0.19806402087
0.195902408349
0.193491716953
0.19081573158
0.187860310197
0.184614419451
0.181071156371
0.177228637522
0.17309061723
0.168666699808
0.163972047011
0.159026551928
0.153853555407
0.148478253486
0.142926021594
0.137220880789
0.131384275203
0.125434257654
0.119385098611
0.11324727163
0.107027732523
0.100730119107
0.0943508279697
0.0878861562951
0.0813327222561
0.0746878618041
0.0679499840371
0.0611188743062
0.0541959395975
0.0471843949132
0.0400893930376
0.0329181040458
0.0256797564484
0.0183856570609
0.0110492141136
0.00368602623016
0.234704686676
0.23460150986
0.234394424113
0.234081471392
0.233659381931
0.233123454399
0.232467411753
0.231683243922
0.230761051573
0.229688908985
0.228452768098
0.227036430145
0.225421615596
0.223588166772
0.22151441941
0.219177777926
0.216555521827
0.213625854738
0.210369180038
0.206769546213
0.202816152309
0.198504745975
0.193838698333
0.188829523256
0.183496647441
0.177866343504
0.171969912892
0.165841353677
0.159514883318
0.153022689741
0.146393184311
0.139649895691
0.13281100509
0.12588942656
0.118893288443
0.111826052453
0.10468298036
0.0974589675208
0.090149109297
0.0827492205504
0.0752562887159
0.0676688509641
0.0599872930226
0.0522140720668
0.0443538696642
0.0364136840242
0.0284028749708
0.020333177644
0.0122187046307
0.00407599335208
0.260411590959
0.260306118343
0.260094367666
0.259774201269
0.259342038321
0.258792695426
0.258119189177
0.257312512371
0.256361399248
0.25525209968
0.253968187638
0.252490435751
0.250796795104
0.248862527164
0.246660541752
0.24416199912
0.241337232047
0.238157030515
0.234594300694
0.23062605565
0.226235614402
0.221414783954
0.216165695493
0.210501899451
0.204448346465
0.198040033959
0.191319394617
0.184332804702
0.177126843141
0.169744941696
0.162224875146
0.154597282933
0.146885175189
0.139104227778
0.131263615283
0.123366036994
0.115404999578
0.107373309322
0.0992638392289
0.0910702084054
0.0827873557138
0.0744120030392
0.0659430118481
0.0573816414873
0.0487317203448
0.039999742745
0.0311949065456
0.022329105898
0.0134168935178
0.0044754636466
0.287965744132
0.287859714779
0.287646787031
0.287324671974
0.286889520616
0.286335718292
0.285655623964
0.284839265862
0.283874008748
0.282744213281
0.281430914688
0.279911556668
0.278159827538
0.276145658855
0.273835461519
0.271192688392
0.268178821584
0.264754879385
0.260883511319
0.256531686071
0.25167386277
0.246295367327
0.240395491859
0.233989656373
0.227109922383
0.219803344538
0.212128155048
0.204148397119
0.195928133779
0.187526373027
0.178993454153
0.170369133513
0.161682194329
0.1529511886
0.144185874553
0.135387205554
0.126545945045
0.117651782772
0.108694371181
0.0996642062655
0.090553343178
0.0813559529727
0.0720687350703
0.0626912033563
0.0532258642868
0.0436783045455
0.0340572050363
0.0243742939478
0.0146442477058
0.00488458581027
0.317726059326
0.317621322753
0.317410934509
0.317092499678
0.316661970765
0.316113390258
0.315438557857
0.314626632248
0.313663680976
0.312532197321
0.311210610619
0.309672827262
0.307887854464
0.305819578727
0.30342679601
0.300663619743
0.297480422057
0.293825483802
0.289647523544
0.284899218779
0.279541690498
0.273549665009
0.266916654417
0.259659083228
0.251818024151
0.243457380375
0.234658214488
0.225510234953
0.216102566209
0.20651592345
0.196817429854
0.187058291827
0.177273837073
0.167485139045
0.157701477999
0.147920461794
0.1381285762
0.128310889786
0.118452437452
0.108539341704
0.098559683001
0.0885041463787
0.0783664768644
0.0681437755228
0.057836664322
0.0474493432319
0.0369895584694
0.0264684927911
0.0159005810383
0.00530329221718
0.350114563098
0.350013048077
0.349809083226
0.349500231684
0.349082347317
0.348549261871
0.347892373816
0.347100145684
0.34615751958
0.345045265184
0.343739282018
0.342209889473
0.340421155932
0.33833034457
0.335887590346
0.333035971892
0.329712202125
0.325848224665
0.32137404955
0.316222151035
0.310333616415
0.30366589103
0.296201340256
0.287954981153
0.278978916153
0.269360875006
0.259215649366
0.248671047774
0.237852671525
0.226871639511
0.215817275763
0.204754674793
0.193725889738
0.182753232639
0.171843432571
0.160988222249
0.150167490104
0.139359532175
0.128542855721
0.117697562979
0.106806368125
0.095855309777
0.0848342184045
0.0737369895323
0.0625617032558
0.0513106202438
0.0399900752732
0.0286102770004
0.0171850113004
0.00573128495498
0.385630775082
0.385534445977
0.385340868558
0.385047647116
0.384650668047
0.384143731258
0.383518058583
0.382761681317
0.381858710177
0.380788493778
0.379524677453
0.378034184833
0.376276162924
0.37420096155
0.371749265432
0.368851568258
0.365428278546
0.36139087716
0.356644691329
0.351093962506
0.344649860565
0.337241750083
0.328831099929
0.319425776273
0.309090340786
0.297946633733
0.286160704927
0.273918457632
0.261399504387
0.248757645883
0.236110993773
0.223540453506
0.211093576946
0.198790931773
0.186632989913
0.174601720927
0.162667011753
0.150797395455
0.13896231258
0.127133737336
0.115287293481
0.103402975297
0.0914655695784
0.0794648530037
0.0673956192179
0.0552575724006
0.0430551096358
0.030796997594
0.0184959342336
0.00616802753234
0.424869683601
0.424780481525
0.424601216948
0.424329635164
0.423961814873
0.423491748003
0.422910771896
0.422206849764
0.42136369393
0.420359725838
0.419166868625
0.417749174274
0.416061301558
0.414046889007
0.411636917956
0.408748247833
0.405282647101
0.401126858056
0.396154532543
0.390231232402
0.383223984529
0.375016813197
0.365532664993
0.354759412469
0.342772803799
0.329744029683
0.315919982855
0.301578143564
0.28697955817
0.272337692667
0.257806517661
0.243482702226
0.229415150802
0.215616767516
0.202075546223
0.188757905297
0.175618904141
0.162613295762
0.149698193574
0.136834839163
0.123989704503
0.111135115077
0.0982495335309
0.0853176032047
0.0723300183993
0.0592832625125
0.0461792352431
0.033024769118
0.0198310179195
0.00661274334521
0.468544214096
0.468463980316
0.468302759292
0.468058548091
0.467727797956
0.467304952402
0.466781815493
0.466146739073
0.465383612834
0.464470635803
0.463378843227
0.462070360569
0.460496359848
0.458594709134
0.456287345438
0.453477484641
0.450046943211
0.445854136038
0.440733799474
0.434500227292
0.42695676975
0.417915213674
0.407228450158
0.394836459433
0.380816226672
0.365410504003
0.349000301488
0.33201348063
0.31483588917
0.29776284377
0.28098930297
0.264622578194
0.248703223158
0.233225771059
0.218155856458
0.20343605746
0.189000046783
0.174783626592
0.160727574199
0.146779318523
0.132893822223
0.119033936572
0.105170411294
0.0912816784914
0.0773534839571
0.0633784058278
0.0493552760802
0.0352884964146
0.0211872205353
0.00706442185313
0.517513322457
0.517443701822
0.51730386201
0.517092163063
0.516805614102
0.51643938602
0.515986137828
0.515435138221
0.514771155134
0.513973074829
0.513012199002
0.51185015358
0.510436328226
0.50870475537
0.506570342548
0.503924414072
0.500629642551
0.496514742449
0.491369906892
0.484945129917
0.47695555192
0.467100882727
0.455108889287
0.440812144389
0.424253552162
0.405776825877
0.38600201431
0.365616215571
0.345198084041
0.325149476906
0.305702931253
0.28696008534
0.268933624416
0.25158172002
0.234832840749
0.218594433734
0.202770339345
0.18727111001
0.172016526132
0.156936762167
0.141972724256
0.127075893778
0.112207884033
0.0973398328336
0.0824516977825
0.0675314831594
0.0525744011397
0.0375819451749
0.0225608336329
0.00752183313402
0.572817131414
0.57275945428
0.572643696001
0.572468675049
0.57223212444
0.571930201939
0.571556806724
0.571102678096
0.570554239204
0.569892131703
0.569089364876
0.56810897315
0.566901037275
0.565398875966
0.563514159254
0.56113064471
0.558096229792
0.554213140548
0.549226552374
0.542813216964
0.534574621625
0.524045209614
0.510736459893
0.494249638871
0.474486341351
0.451913479135
0.427624035558
0.402776116015
0.378241434969
0.354542012751
0.331920345738
0.310433909475
0.290032134831
0.270608817917
0.252034597454
0.234167429438
0.216871211158
0.200024122859
0.183519923915
0.167267970401
0.151192562063
0.135231965698
0.119337304997
0.103471413035
0.0876076867755
0.0717289473623
0.0558262866845
0.0398978581402
0.0239475517892
0.00798355105547
0.635720871146
0.635676013855
0.635586108301
0.635450488919
0.635267724363
0.635035154219
0.634748238094
0.634399689109
0.633978348748
0.633467738512
0.632844193865
0.632074442809
0.631112428706
0.629895085542
0.628336641519
0.626320840094
0.62369021983
0.620231314505
0.615654469748
0.609567408796
0.601444088769
0.590598192544
0.576191102956
0.557348416576
0.533523962548
0.505226902562
0.474636169363
0.443803320558
0.414009105664
0.385853517802
0.359504308901
0.334897230997
0.311860596995
0.290184197886
0.269654689754
0.25006401396
0.231225228478
0.212976910511
0.195181944796
0.177725565403
0.160513181732
0.143468239605
0.126530220934
0.109652807998
0.092802197164
0.0759555236849
0.059099345265
0.0422281158331
0.0253425677607
0.00844798474544
0.707769793992
0.707738016977
0.707674468405
0.707578987844
0.707450990184
0.707289061241
0.707090389323
0.706850003353
0.706559774294
0.706207114139
0.705773273722
0.705231090361
0.704541958637
0.70365167478
0.702484607533
0.70093532611
0.698856286114
0.696039308903
0.692187223377
0.686870095385
0.679458555224
0.669028359174
0.654249172105
0.633350714811
0.60451297111
0.567578283397
0.527744740813
0.488748846642
0.452273918863
0.418779482188
0.388159689723
0.360093602987
0.334205870343
0.310133672526
0.28755124853
0.26616836382
0.245737334857
0.226050986034
0.206937420765
0.188255210895
0.16988918422
0.151746811428
0.133755123225
0.11585806477
0.0980141896715
0.0801945968103
0.0623810153371
0.044563937208
0.0267406903166
0.00891341741349
0.790857682963
0.790838447798
0.790800113489
0.790742907545
0.790666941392
0.790571895346
0.790456588797
0.790318399874
0.790152499327
0.789950844131
0.789700846891
0.789383591195
0.788971389118
0.788424354153
0.787685452099
0.786673119086
0.78526985175
0.783303877481
0.780518473894
0.776518416998
0.770672790386
0.761933668674
0.748499218038
0.727244319914
0.693151428496
0.641286932309
0.587135088743
0.537023753365
0.492319800404
0.452693265955
0.417390219142
0.38564250673
0.356777614646
0.330234112435
0.305550688186
0.282343601791
0.260298158817
0.239157905109
0.218714111728
0.198797454392
0.179271410945
0.160026979894
0.140978403902
0.122059648536
0.103221436111
0.0844286689908
0.0656580996768
0.0468961120141
0.028136479931
0.00937805093653
0.887312013129
0.887303844188
0.887287512422
0.887263442729
0.887232056844
0.88719365427
0.887148180507
0.88709490486
0.887031991202
0.886955932058
0.886860796826
0.886737216568
0.886570981417
0.886341047265
0.886016607005
0.885552618641
0.884882669007
0.883906990628
0.882471109923
0.880325055423
0.87703877596
0.871809362346
0.862973058781
0.846627319086
0.812307270008
0.728085237166
0.651113457369
0.586700023656
0.532675741443
0.486569972058
0.446490446281
0.411050872993
0.379222669962
0.350225898271
0.323457442487
0.298439141487
0.274789505464
0.252203384815
0.23043582021
0.209290105771
0.188608776974
0.168266669485
0.148165464357
0.128229305649
0.108401186008
0.0886398657551
0.0689171356192
0.0492152534472
0.0295243957581
0.00984005406651
1
1
1
1
1
1
1
1
1
1
1
1
1
1
1
1
1
1
1
1
1
1
1
1
1
0.821575252338
0.712736084129
0.63365774833
0.571027507754
0.519057701583
0.474622287688
0.435768515362
0.401161712304
0.369836773086
0.341069654733
0.314301225995
0.28909160975
0.265092419839
0.242026084002
0.219670957295
0.197850309117
0.176423977825
0.155281900267
0.134338973629
0.11353086227
0.0928104595883
0.0721447763264
0.051512057346
0.0308989460736
0.0102976117259
1
1
1
1
1
1
1
1
1
1
1
1
1
1
1
1
1
1
1
1
1
1
1
1
1
0.862492687742
0.755702430535
0.672263977481
0.604915144695
0.548860671153
0.50100935224
0.459288750538
0.422244015971
0.388813338004
0.358198238456
0.329785006876
0.303091108114
0.277734732594
0.253412017405
0.229880561496
0.206947197671
0.184458716028
0.162294670909
0.140361673231
0.118588739806
0.0969233789796
0.0753281605306
0.0537775531941
0.0322548338527
0.0107489726999
1
1
1
1
1
1
1
1
1
1
1
1
1
1
1
1
1
1
1
1
1
1
1
1
1
0.8840642477
0.784949082753
0.702483641025
0.633633535471
0.575343682603
0.525167646466
0.481251812028
0.442200008587
0.406950359551
0.374684363016
0.344765553427
0.31668828222
0.29004971834
0.26452779387
0.239864748724
0.215854655626
0.192333804643
0.169173159226
0.146272317664
0.123554561618
0.100962671047
0.0784552489317
0.0560033327354
0.0335870894892
0.0111924931431
1
1
1
1
1
1
1
1
1
1
1
1
1
1
1
1
1
1
1
1
1
1
1
1
1
0.897338490272
0.805633910037
0.72607454077
0.657607810261
0.598478182319
0.546937831838
0.501478510034
0.460865545617
0.424107148524
0.390410434169
0.359145323638
0.329802249647
0.301970132366
0.275317321331
0.24957660591
0.224533406413
0.200016406785
0.175890042334
0.152048383439
0.128410053609
0.104913890628
0.081515108635
0.0581817440849
0.03489118382
0.011626673695
1
1
1
1
1
1
1
1
1
1
1
1
1
1
1
1
1
1
1
1
1
1
1
1
1
0.906494418545
0.82101209133
0.74480192321
0.677642339758
0.618571498033
0.566394759154
0.519943051143
0.478176127727
0.440208558851
0.405302841208
0.372857008251
0.342373429037
0.313444099811
0.2857358435
0.258977742973
0.232950684616
0.207478719764
0.182421917885
0.157670404452
0.133139310793
0.1087643965
0.0844981321996
0.060306042511
0.0361631164414
0.0120501885737
1
1
1
1
1
1
1
1
1
1
1
1
1
1
1
1
1
1
1
1
1
1
1
1
1
0.913333779685
0.832980663466
0.760012326951
0.694538085418
0.636048798658
0.583739456805
0.536722631655
0.494144184693
0.455235141849
0.419328002776
0.385862228875
0.354363397056
0.324435445803
0.295750431238
0.268038806865
0.241080714488
0.214698396762
0.188749664004
0.163122272103
0.137729041877
0.112503544969
0.0873961842141
0.0623704930791
0.0373994765252
0.0124619057339
1
1
1
1
1
1
1
1
1
1
1
1
1
1
1
1
1
1
1
1
1
1
1
1
1
0.91873318548
0.84265318156
0.772651961742
0.708963670145
0.651333681367
0.599219348481
0.551950203561
0.508832612282
0.469208727174
0.432484652722
0.398147476619
0.365752799771
0.334922667916
0.305339522996
0.276739322638
0.248904706015
0.221658618161
0.194858542083
0.168391345434
0.142168673441
0.116122780762
0.0902026748206
0.0643704244983
0.0385974756441
0.0128608979092
1
1
1
1
1
1
1
1
1
1
1
1
1
1
1
1
1
1
1
1
1
1
1
1
1
0.923165622363
0.850706314695
0.783372429164
0.721439782604
0.664798764999
0.613081787096
0.565780292764
0.52233209308
0.482178124515
0.444795070886
0.409718805229
0.376538161264
0.344897023787
0.314491783617
0.285067017829
0.256410461077
0.228347868432
0.200738076772
0.173468392646
0.146450327129
0.119615633622
0.0929125653725
0.0663022372331
0.0397549542087
0.0132464450308
1
1
1
1
1
1
1
1
1
1
1
1
1
1
1
1
1
1
1
1
1
1
1
1
1
0.926908804547
0.857568921206
0.792624901169
0.732361266754
0.676753454896
0.625551937054
0.578368031429
0.534744667319
0.494207338785
0.456297021833
0.42059645153
0.386728336083
0.354360201409
0.323204573837
0.293016814295
0.26359170707
0.234759494411
0.206381762844
0.17834739691
0.150568691793
0.122977635215
0.0955223157792
0.0681633718402
0.0408703647647
0.0136180290546
1
1
1
1
1
1
1
1
1
1
1
1
1
1
1
1
1
1
1
1
1
1
1
1
1
0.930137245053
0.863524375697
0.800727004645
0.74202576962
0.687447861961
0.636825112733
0.589858104601
0.546173208357
0.505366957201
0.467037224166
0.430810084443
0.396341129925
0.363321941907
0.331482284454
0.300589660174
0.270447275366
0.240891125114
0.211786653985
0.18302526449
0.154520816903
0.126206174451
0.0980297857502
0.0699522453337
0.0419427364868
0.0139753225825
1
1
1
1
1
1
1
1
1
1
1
1
1
1
1
1
1
1
1
1
1
1
1
1
1
0.932966775175
0.868767259213
0.807907117503
0.750658738916
0.697082071168
0.647066528953
0.600380061782
0.556715429371
0.51572842816
0.477066520311
0.440394981689
0.405400381595
0.371797857429
0.339334721638
0.307791340183
0.276980225198
0.246744025743
0.216952885863
0.187501472842
0.158305854187
0.129300310331
0.100434103122
0.0716681641659
0.0429716257037
0.0143181728378
1
1
1
1
1
1
1
1
1
1
1
1
1
1
1
1
1
1
1
1
1
1
1
1
1
0.93547779935
0.873435850919
0.814333160875
0.758432714857
0.705815983846
0.65641428412
0.610047279253
0.566460970792
0.525360601935
0.486436567516
0.449389166228
0.413933617761
0.379807571084
0.346775658987
0.314631360119
0.283196988835
0.252322444337
0.221883177819
0.191777691949
0.161924772199
0.132260560309
0.102735511993
0.0733112222593
0.0439570572622
0.0146465825538
1
1
1
1
1
1
1
1
1
1
1
1
1
1
1
1
1
1
1
1
1
1
1
1
1
0.937728270541
0.877631494157
0.820131355596
0.765481502976
0.713777969145
0.664983371506
0.618957794862
0.575490402678
0.534327877826
0.495197739174
0.457831392422
0.421970274471
0.387373219402
0.353821612244
0.321121961744
0.289106588042
0.257632992972
0.226582347023
0.195857405594
0.165380064395
0.135088679683
0.104935211892
0.0748821916807
0.0448994611157
0.0149606892108
1
1
1
1
1
1
1
1
1
1
1
1
1
1
1
1
1
1
1
1
1
1
1
1
1
0.939761306148
0.881430522189
0.825398636691
0.77191039945
0.721071899633
0.672869675285
0.627195958595
0.583875321296
0.542689412532
0.503397918888
0.465759817846
0.429540416741
0.394518302647
0.360490849414
0.327277292429
0.294719949257
0.262684089677
0.231056858203
0.199745551948
0.168675466431
0.13778744427
0.107035197129
0.076382412258
0.0457996078235
0.0152607438315
1
1
1
1
1
1
1
1
1
1
1
1
1
1
1
1
1
1
1
1
1
1
1
1
1
0.941609897703
0.884891855482
0.830210952771
0.777803528219
0.727782664465
0.680153526248
0.6348343186
0.59167900752
0.550498984744
0.511081924898
0.473211193134
0.436673862266
0.401266838695
0.36680262186
0.333112731548
0.300049327485
0.267485474171
0.235314422405
0.203448195947
0.171815693443
0.140360445182
0.109038103121
0.0778136849556
0.0466585458284
0.0155470902899
1
1
1
1
1
1
1
1
1
1
1
1
1
1
1
1
1
1
1
1
1
1
1
1
1
0.943299916851
0.888062006431
0.834628960317
0.783229131809
0.73398041775
0.686902697387
0.641935449723
0.598957319134
0.557805227123
0.518291404472
0.480220414113
0.443399610288
0.407642764443
0.372776587874
0.338644361841
0.305107836855
0.272047800654
0.239363650523
0.206972239974
0.174806203668
0.142811901325
0.110947064255
0.0791781723389
0.0474775425368
0.0158201458094
1
1
1
1
1
1
1
1
1
1
1
1
1
1
1
1
1
1
1
1
1
1
1
1
1
0.944852107745
0.890978455165
0.838701990158
0.788243416806
0.739723833204
0.693174857167
0.64855359628
0.605759619374
0.564651954239
0.525064631022
0.486820233195
0.449745480175
0.413669530071
0.378432395944
0.343888567083
0.309909078467
0.276382304157
0.24321376161
0.210325174773
0.177652991134
0.14514649246
0.112765585847
0.0804783081074
0.048258030448
0.0160803830783
1
1
1
1
1
1
1
1
1
1
1
1
1
1
1
1
1
1
1
1
1
1
1
1
1
0.946283445172
0.893671990441
0.842470837898
0.792893358171
0.745062578861
0.699019554464
0.654736102074
0.612129678655
0.571078503197
0.531435622678
0.493041071963
0.455737924105
0.419369849313
0.383789397822
0.348861735147
0.314466852265
0.280500532784
0.2468743421
0.213514869095
0.180362407349
0.1473692135
0.114497431076
0.0817167165404
0.0490015589125
0.0163283141863
1
1
1
1
1
1
1
1
1
1
1
1
1
1
1
1
1
1
1
1
1
1
1
1
1
0.947608075955
0.896168340982
0.845969862513
0.797218830055
0.750039252759
0.704479782843
0.660524630863
0.618106634741
0.577120796924
0.53743708768
0.498911623848
0.461402081477
0.424765582338
0.388866462751
0.353580044525
0.31879493779
0.284414135876
0.250355149684
0.216549394429
0.182941009999
0.149485249077
0.116146522596
0.0828961418117
0.0497097515731
0.0165644764157
1
1
1
1
1
1
1
1
1
1
1
1
1
1
1
1
1
1
1
1
1
1
1
1
1
0.948838031468
0.898489453118
0.849228440607
0.801254190197
0.754690901153
0.70959333321
0.665956196558
0.62372567206
0.58281156228
0.543098976271
0.504458723194
0.466761754206
0.429877661031
0.393681853951
0.358059311299
0.322906928599
0.288134697443
0.253665954462
0.2194368798
0.185395435401
0.151499866361
0.117716857543
0.0840193864741
0.0503842691404
0.0167894197826
1
1
1
1
1
1
1
1
1
1
1
1
1
1
1
1
1
1
1
1
1
1
1
1
1
0.949983710213
0.900654316418
0.852272120231
0.805029466298
0.759050120511
0.714393749185
0.671064001423
0.629018692575
0.588180758559
0.548448939354
0.509707449868
0.471839432613
0.434726056808
0.398253152051
0.362314880805
0.3268161046
0.291673604505
0.256816409986
0.222185391365
0.187732290979
0.153418323529
0.119212434278
0.0850892580579
0.0510267769354
0.0170036961673
1
1
1
1
1
1
1
1
1
1
1
1
1
1
1
1
1
1
1
1
1
1
1
1
1
0.951054298615
0.902679714286
0.855123507678
0.80857132041
0.763146000592
0.718911148188
0.675878065358
0.634014779491
0.593255938908
0.553512610634
0.514681279109
0.476656340675
0.439329761465
0.402597193276
0.366361550809
0.330535345218
0.29504195005
0.259815955914
0.224802839959
0.189958071592
0.155245797767
0.120637194227
0.0861085263299
0.0516389186492
0.017207850291
1
1
1
1
1
1
1
1
1
1
1
1
1
1
1
1
1
1
1
1
1
1
1
1
1
0.952058135818
0.904580831938
0.857803007708
0.811903819458
0.767004856746
0.723172882361
0.680425795749
0.638740639883
0.598062564354
0.558313832224
0.51940219994
0.481232498785
0.443706798039
0.406730035664
0.370213481438
0.334077022853
0.298250421729
0.262673705783
0.227296873449
0.192079061073
0.156987300025
0.121994952892
0.0870798728742
0.0522222860563
0.0174024100643
1
1
1
1
1
1
1
1
1
1
1
1
1
1
1
1
1
1
1
1
1
1
1
1
1
0.953003149793
0.906371882704
0.860329476004
0.815049078435
0.770650825989