/*--------------------------------*- C++ -*----------------------------------*\
| =========                 |                                                 |
| \\      /  F ield         | OpenFOAM: The Open Source CFD Toolbox           |
|  \\    /   O peration     | Version:  5.x                                   |
|   \\  /    A nd           | Web:      www.OpenFOAM.org                      |
|    \\/     M anipulation  |                                                 |
\*---------------------------------------------------------------------------*/
FoamFile
{
    version     2.0;
    format      ascii;
    class       volScalarField;
    location    "1134";
    object      T;
}
// * * * * * * * * * * * * * * * * * * * * * * * * * * * * * * * * * * * * * //

dimensions      [0 0 0 1 0 0 0];

internalField   nonuniform List<scalar> 
250000
(
0.00609938128095
0.0060876629817
0.00606429623435
0.00602941600461
0.00598320346159
0.00592588546854
0.00585773651438
0.00577908158795
0.00569029958545
0.00559182700056
0.00548416157155
0.00536786548742
0.00524356769529
0.00511196479879
0.0049738199991
0.00482995952178
0.00468126600944
0.00452866845827
0.00437312844702
0.00421562265374
0.00405712197106
0.00389856789259
0.00374084721319
0.00358476641352
0.00343102733173
0.00328020591195
0.00313273502805
0.00298889362181
0.00284880233995
0.00271242590934
0.00257958212749
0.00244995663932
0.00232312235834
0.0021985622496
0.00207569427625
0.0019538976971
0.00183254083355
0.00171101283717
0.00158876963186
0.00146512699349
0.00133941713761
0.0012110832419
0.00107970762962
0.000945030386578
0.00080696322713
0.000665598721295
0.000521213535042
0.000374263225361
0.000225363680207
7.52562050694e-05
0.0183215962822
0.0182863706314
0.0182161269735
0.0181112870383
0.0179723926354
0.0178001198543
0.0175952863505
0.0173588604516
0.0170919717361
0.0167959225529
0.0164721994946
0.0161224836145
0.0157486580066
0.0153528111974
0.0149372346745
0.014504412828
0.0140570036804
0.013597809059
0.0131297333711
0.0126557308936
0.0121787424507
0.0117016234834
0.0112270666741
0.0107575233327
0.0102951285069
0.00984163535568
0.00939836208867
0.00896615811985
0.0085453904527
0.00813595074358
0.00773728279571
0.00734842781952
0.0069680838596
0.00659467531677
0.00622642867241
0.00586145142876
0.00549781313786
0.00513363091015
0.00476716843934
0.00439655421524
0.0040197236062
0.003634978356
0.00324104565796
0.00283712872158
0.00242294728431
0.00199876509468
0.00156539963029
0.00112420656871
0.00067702720345
0.000226093655089
0.0306307099404
0.0305717847953
0.0304543766194
0.0302791574209
0.0300470184621
0.0297590703005
0.0294166538222
0.0290213563476
0.0285750309652
0.0280798175156
0.0275381635845
0.0269528435762
0.0263269736032
0.0256640195828
0.0249677956561
0.0242424499102
0.0234924344763
0.022722457495
0.0219374152553
0.0211423040614
0.0203421130577
0.0195417012258
0.0187456638804
0.0179581959336
0.0171829606641
0.01642297382
0.0156805093968
0.0149570385209
0.0142532039859
0.0135688310873
0.012902974424
0.0122539958392
0.0116196669689
0.0109972889455
0.0103838219545
0.00977601850218
0.00917055629826
0.00856416974356
0.00795378410391
0.0073365047943
0.00670879690673
0.00606776006476
0.00541121337048
0.00473777877922
0.00404694877017
0.00333913235125
0.00261567177405
0.00187881853656
0.00113165425328
0.000377958070604
0.0431191798776
0.0430364005265
0.0428714831424
0.042625364779
0.0422992660764
0.0418946990901
0.0414134854762
0.0408577818022
0.0402301095071
0.0395333874816
0.0387709651016
0.0379466531256
0.0370647493323
0.036130055202
0.035147879444
0.0341240238449
0.0330647469036
0.0319767011642
0.0308668412008
0.0297423009281
0.0286102413355
0.0274776727391
0.0263512589555
0.0252371139899
0.024140604381
0.0230661722828
0.0220171898461
0.0209958622186
0.0200031842166
0.0190389520078
0.0181018294422
0.0171894616305
0.0162986255648
0.015425406028
0.0145653851195
0.0137138351131
0.0128659063948
0.0120168038035
0.0111619436242
0.0102974263801
0.0094182199459
0.00852013089957
0.00759998289147
0.00665574575976
0.00568663184331
0.00469316028655
0.00367718128335
0.0026418468345
0.00159151475187
0.000531599054227
0.0559062102316
0.0557994191187
0.0555866764505
0.0552691587175
0.0548483757805
0.0543261855467
0.0537048212477
0.0529869278279
0.0521756046929
0.0512744525233
0.0502876216162
0.0492198586307
0.0480765478388
0.04686374211
0.045588178025
0.0442572688545
0.042879068849
0.0414622025745
0.0400157541165
0.038549113054
0.0370717772618
0.0355931167677
0.0341221077489
0.0326670507185
0.0312352912434
0.0298329649479
0.0284647834757
0.0271338866135
0.0258417698477
0.0245882905038
0.0233717523625
0.0221890582899
0.0210359159435
0.0199070791656
0.0187966077467
0.0176981302965
0.0166050979693
0.0155110190446
0.014409661668
0.0132956954866
0.0121628850055
0.0110055505336
0.00981938156124
0.00860159425548
0.00735104936888
0.00606833251615
0.00475578668812
0.00341748221091
0.0020591135117
0.000687846775729
0.0691364155568
0.0690055096844
0.0687447179862
0.0683554149497
0.0678393365819
0.0671986036902
0.0664357597225
0.0655538198454
0.064556328559
0.0634474235311
0.0622319029698
0.060915293089
0.0595039111686
0.0580049184737
0.0564263559993
0.0547771548352
0.0530671121155
0.0513068233399
0.049507562662
0.0476811048862
0.0458394866616
0.0439947097812
0.0421583963172
0.040341412848
0.0385534881152
0.0368028544869
0.0350959389097
0.0334371397257
0.0318287058783
0.0302707255744
0.0287612253199
0.0272963652568
0.0258707095646
0.0244775468445
0.0231092355168
0.02175755259
0.0204140296448
0.0190702669694
0.0177182280091
0.0163505477311
0.0149601200909
0.013539511268
0.012083097346
0.0105872114653
0.00905027364686
0.00747288510299
0.00585787050291
0.00421025133231
0.00253714099502
0.000847591273738
0.0829801812033
0.0828251420456
0.0825162316211
0.0820549619295
0.0814432076128
0.0806832394244
0.0797777737779
0.0787300357314
0.0775438331941
0.0762236403776
0.0747746880084
0.0732030568815
0.0715157699938
0.069720876833
0.0678275215182
0.0658459845741
0.0637876864197
0.0616651395427
0.0594918363115
0.0572820610213
0.0550506186662
0.0528124794632
0.0505823473165
0.0483741715017
0.0462006323802
0.0440726425866
0.0419989026785
0.0399855641189
0.038036028597
0.0361508985133
0.0343280822257
0.0325630357673
0.0308491111303
0.029177975033
0.0275400621249
0.0259250315682
0.0243222039523
0.0227209646723
0.0211111284084
0.019483261764
0.0178289891488
0.0161389320308
0.014405962881
0.0126253795697
0.0107950550737
0.00891554845816
0.00699015904555
0.00502490508375
0.00302841587089
0.00101176519783
0.0976355034943
0.0974564275142
0.0970995443103
0.0965664228973
0.0958589638316
0.0949794435674
0.093930576155
0.0927155906273
0.0913383228014
0.089803320287
0.0881159588972
0.086282567585
0.0843105574347
0.0822085481429
0.0799864828769
0.0776557195225
0.0752290833664
0.0727208635926
0.0701467342762
0.0675235807053
0.0648692149253
0.0622019713946
0.0595401851999
0.0569015710914
0.0543025399643
0.0517575080008
0.0492782569148
0.0468734231852
0.044548166729
0.042304048512
0.0401391266838
0.0380482481078
0.0360234930154
0.0340547203831
0.0321301614327
0.0302370161301
0.0283620194334
0.0264919571192
0.0246141228296
0.0227167166934
0.0207897794475
0.0188216769166
0.0168035315592
0.014729417659
0.0125965324537
0.010405325262
0.0081595637909
0.00586631559039
0.00353582791919
0.00118132527718
0.113331246528
0.113128378523
0.112723950657
0.112119489325
0.111316783635
0.110317940404
0.109125457402
0.107742314516
0.106172082898
0.104419052187
0.102488375257
0.100386228872
0.0981199869043
0.0956984003171
0.0931317749236
0.0904321339697
0.0876133479745
0.0846912093021
0.0816834243707
0.0786094934585
0.0754904484377
0.0723484245312
0.0692060552912
0.0660857014115
0.0630085524189
0.0599936723041
0.0570570754167
0.054210949061
0.0514631101279
0.0488167524352
0.0462705067431
0.0438187849351
0.0414523477629
0.0391590187327
0.0369244661345
0.0347329868506
0.0325682437426
0.030413927927
0.028254334746
0.0260748576158
0.0238635556572
0.0216061569413
0.0192917272476
0.0169128835898
0.0144659891615
0.0119513003147
0.00937304150843
0.00673938123922
0.00406228258309
0.0013572337838
0.130331677372
0.130105448622
0.129654263949
0.128979490078
0.128082644668
0.126965460419
0.125629967862
0.124078598037
0.122314306881
0.120340723206
0.118162321674
0.11578462131
0.113214408428
0.110459980347
0.107531402565
0.104440767157
0.101202433731
0.0978332262779
0.0943525503324
0.0907823865384
0.0871471111809
0.0834730952425
0.0797880452657
0.0761200757963
0.0724965454489
0.0689427427459
0.0654805465849
0.0621272376185
0.0588946116623
0.0557885019133
0.0528087565224
0.049949637291
0.0472005505455
0.0445469930904
0.0419715953165
0.0394551625266
0.0369776442626
0.0345189909195
0.0320598809754
0.0295823177305
0.0270717911663
0.0245109892015
0.0218865417852
0.0191893147271
0.0164146386961
0.0135624700829
0.0106374652683
0.00764893599849
0.00461064645718
0.00154044013769
0.148942086028
0.148693161004
0.148196462639
0.147453066571
0.146464040063
0.145230512138
0.143753762114
0.142035329388
0.140077148383
0.137881712745
0.135452272916
0.132793070751
0.129909613744
0.126808989153
0.123500214725
0.119994617317
0.116306222945
0.112452130267
0.10845282481
0.10433237453
0.100118431135
0.0958419511836
0.0915365541986
0.0872374620844
0.0829800229503
0.0787979120843
0.0747211845681
0.0707744484275
0.0669754209148
0.0633340678139
0.059852420154
0.0565250282815
0.05333991837
0.0502798691948
0.0473238269917
0.0444483089364
0.0416286930355
0.0388403388502
0.0360595186259
0.0332641503883
0.030436026261
0.0275546737234
0.0246037495985
0.0215719834732
0.0184534209198
0.0152475783093
0.0119594975582
0.00859965848793
0.00518369198139
0.00173186222947
0.169515226643
0.169244562185
0.168704169964
0.167894693297
0.166816556836
0.165470037839
0.163855354502
0.161972775828
0.159822759112
0.157406121718
0.154724254564
0.15177938522
0.148574898394
0.145115720268
0.141408770194
0.137463478861
0.133292364633
0.128911644958
0.124341838268
0.119608283915
0.114741474657
0.109777063587
0.104755387273
0.0997203600204
0.0947176662887
0.0897923245659
0.0849858518643
0.08033343783
0.0758615889567
0.0715866194563
0.067514175245
0.0636397447635
0.0599499431829
0.0564242774172
0.0530371040195
0.0497595512515
0.0465612570055
0.0434118515318
0.040282177423
0.0371452962764
0.0339774284847
0.0307552392401
0.0274586111648
0.0240736465818
0.0205927928372
0.0170149460403
0.0133454580369
0.00959597670821
0.00578403949581
0.00193236692106
0.192458201428
0.192167122785
0.191585589666
0.190713668256
0.189550943107
0.188096582638
0.186349418943
0.184308047697
0.181970956207
0.179336688933
0.176404061572
0.173172436768
0.169642076131
0.165814583399
0.161693451871
0.157284727792
0.152597800356
0.147646310783
0.142449145428
0.137031438332
0.13142545266
0.125671140891
0.11981611322
0.113914705607
0.108025898973
0.102210085069
0.0965249426949
0.0910210308014
0.0857379171037
0.0807015672798
0.0759233555189
0.0714006404363
0.0671185515145
0.0630524999753
0.0591709487599
0.0554380877193
0.0518161985779
0.0482676177277
0.0447562945773
0.0412489943108
0.0377161932029
0.0341298540143
0.0304655553186
0.0267062755309
0.0228425027552
0.0188722879278
0.0148011807669
0.010641965597
0.00641409532267
0.00214274932233
0.218239239849
0.217929538251
0.217310351124
0.216381027392
0.215140119431
0.213585433867
0.211714092139
0.20952260717
0.207006985625
0.204162867263
0.200985716069
0.197471082002
0.193614956735
0.189414249034
0.18486740272
0.179975183179
0.17474168381
0.169175574701
0.163291587128
0.157112182591
0.15066927522
0.144005756103
0.137176407606
0.130247622678
0.123295281531
0.116400611449
0.109644232613
0.10309921645
0.0968246352547
0.0908610657133
0.0852287190291
0.079928117402
0.0749426947657
0.0702424859833
0.0657881375192
0.0615346899375
0.0574348254915
0.0534414730891
0.0495097942037
0.0455986399686
0.0416715845642
0.0376945284176
0.0336378505591
0.0294807612265
0.0252113411509
0.0208265104396
0.0163318585698
0.0117412363474
0.00707598546748
0.00236371073485
0.247393601042
0.247067657061
0.246415490733
0.245435608845
0.244125358777
0.242480953888
0.240497501954
0.238169042332
0.235488601617
0.232448280389
0.22903938818
0.225252651233
0.22107852764
0.216507671708
0.211531572751
0.206143387145
0.200339120518
0.194119214421
0.187490585108
0.180469133999
0.173082656818
0.165373911236
0.157403323759
0.149250360987
0.141011911147
0.132797343916
0.124720098506
0.116886623447
0.109385363442
0.102279019553
0.0956011945248
0.089357287811
0.08352849127
0.0780773988069
0.0729539463438
0.0681008342158
0.06345801494
0.0589661489238
0.0545691200354
0.0502157867371
0.0458611594508
0.041463606221
0.0369871968887
0.0324065757663
0.027706863839
0.0228834915111
0.0179418753637
0.0128968185978
0.00777148575094
0.00259583554867
0.280527562577
0.280188497913
0.279509527962
0.278488221093
0.277120583561
0.275401047713
0.273322454047
0.270876030242
0.268051375747
0.264836463297
0.261217674009
0.257179893827
0.252706721138
0.247780869126
0.242384768436
0.236501233478
0.23011473253
0.22321323294
0.215790760566
0.207850842012
0.199410917111
0.190507642539
0.181202696449
0.171588005335
0.16178554859
0.151942305064
0.142219073125
0.132772674308
0.123736288307
0.115206232583
0.107236124471
0.0998383378198
0.0929905126492
0.0866443806816
0.0807347417219
0.0751873135813
0.0699249399936
0.0648721414265
0.0599582496672
0.0551194526887
0.0503000654797
0.0454491923702
0.0405232636773
0.0354913989661
0.0303350932466
0.0250478471241
0.019634631254
0.0141110391068
0.00850195057904
0.00283956782657
0.318319197074
0.317971053683
0.317273327079
0.316222596279
0.314813448255
0.313038417991
0.310887909919
0.30835009922
0.305410819093
0.302053440639
0.298258754869
0.294004876877
0.289267229894
0.284018863627
0.278231094481
0.271873339355
0.264914480911
0.257324758199
0.249078623305
0.240158994106
0.230563274539
0.220311411608
0.209456212705
0.198098182243
0.186387105323
0.174518822225
0.162723029864
0.151234782318
0.140256184144
0.129934931019
0.120354144548
0.11153532862
0.103449620779
0.0960321171447
0.0891956460689
0.0828421710023
0.0768713178411
0.0711862627901
0.0656975187493
0.0603252013145
0.0550002768297
0.0496605352518
0.0442531964537
0.0387407272991
0.0331002118269
0.0273226960856
0.0214123690644
0.0153854030246
0.00926824394659
0.00309518875448
0.361514463061
0.361162400962
0.360456251134
0.359391618494
0.357961674949
0.356157046348
0.353965660437
0.351372551979
0.348359628412
0.344905393943
0.340984624407
0.336567975399
0.331621435578
0.32610666365
0.319982632707
0.313201948531
0.305713491278
0.29746370809
0.288399224879
0.278471419851
0.267643719291
0.255902183541
0.243268131086
0.229841880196
0.215799777794
0.201396336815
0.186961593387
0.172858745528
0.159396241961
0.146801118537
0.135199194613
0.124622233129
0.115028514553
0.106326671268
0.0983969759966
0.0911078022585
0.0843271184059
0.0779298561427
0.0718022426313
0.0658440845057
0.0599697728315
0.0541033875758
0.0481811206848
0.0421574901902
0.0360042680987
0.0297094391108
0.0232760143238
0.0167204860034
0.0100706774407
0.00336279650791
0.410917181507
0.41056767148
0.40986614555
0.408807339556
0.407383120641
0.405582336951
0.403390577046
0.400789865673
0.397758290415
0.394269548456
0.390292387025
0.385789926136
0.380718920173
0.375029200432
0.368663258595
0.36155463008
0.35362777176
0.344798377603
0.33497490963
0.324062475758
0.311970768194
0.298628655065
0.284009074574
0.268170332486
0.251291392295
0.233695109656
0.215852813778
0.198362059224
0.181687239231
0.166181755488
0.152031096548
0.139274390836
0.127843861615
0.117604973425
0.10838916593
0.100017128677
0.0923137300457
0.0851167129476
0.0782811889959
0.0716815209221
0.0652117096518
0.0587793899078
0.0523076811129
0.0457417057518
0.0390469208973
0.0322075718411
0.0252250430409
0.0181158468006
0.0109089607643
0.00364229031876
0.467372073985
0.467033184338
0.466352638775
0.465324550031
0.463939795187
0.462185797731
0.460046222068
0.457500564805
0.454523625095
0.45108486806
0.447147592903
0.442667866888
0.437593307186
0.431861657523
0.425399102387
0.418118023298
0.409914860164
0.400668124677
0.390237148053
0.378462885699
0.365173394831
0.350198894654
0.333404645946
0.314752118066
0.294388638747
0.272744305409
0.250546865947
0.228620414356
0.207738284795
0.188480992081
0.171108490091
0.155652797994
0.141993660851
0.129925381233
0.119206008328
0.109588867188
0.100840685245
0.0927508123035
0.0851350135097
0.0778362088974
0.0707236622886
0.0636855374906
0.0566296644767
0.0494902132659
0.0422252503874
0.0348145530524
0.0272573924378
0.0195699704277
0.0117821704603
0.00393336056756
0.531740598962
0.531422416966
0.530783165165
0.529816650058
0.528513210641
0.526859442497
0.524837829742
0.522426248646
0.519597309427
0.516317501868
0.512546075195
0.508233580678
0.503320109952
0.497732948154
0.491383633804
0.484164153556
0.475942269487
0.466555881215
0.455806584733
0.44345331633
0.429208756123
0.412745303338
0.393726003053
0.371889834955
0.347231184651
0.320277068903
0.292244192134
0.264512726917
0.238211363099
0.214094654421
0.192655698813
0.173877961395
0.157538539007
0.143315025785
0.130856350045
0.119822163982
0.109902212904
0.10082410647
0.0923548341525
0.0842992071344
0.0764970343598
0.0688138016626
0.0611397580841
0.0533965210836
0.0455336641503
0.0375257484251
0.029369428792
0.0210802510304
0.0126887419563
0.00423548653452
0.604870209128
0.60458488793
0.604011304239
0.60314339275
0.601971596612
0.600482543136
0.598658641464
0.596477534851
0.593911351956
0.590925698048
0.587478307457
0.58351725862
0.578978636481
0.573783392891
0.56783320816
0.561004796323
0.553142230803
0.544046483612
0.533461205319
0.521053781952
0.50639175642
0.488919209138
0.467952372292
0.442753228425
0.412822514554
0.378627401004
0.342488841975
0.306861688296
0.27349539854
0.243336277051
0.21680525851
0.193990077517
0.174476505437
0.157754487854
0.143314981402
0.13069123128
0.119474098847
0.109314693487
0.099921178709
0.0910533424976
0.0825167428424
0.0741509786938
0.065826494295
0.0574508046237
0.048963922406
0.0403344664066
0.0315559834457
0.022643021466
0.0136264887292
0.00454794300691
0.687563241986
0.687324881207
0.686845219173
0.686118853902
0.685137174664
0.683887974924
0.682355073732
0.680517786589
0.678350168312
0.675819960107
0.67288715368
0.669502046754
0.66560260502
0.661110832694
0.65592772819
0.649926107443
0.642940306726
0.634750857167
0.625061371228
0.613462800549
0.59937754469
0.581973797417
0.56004846761
0.53193399206
0.495728132366
0.450905932634
0.402913150305
0.356336299581
0.313716587309
0.276068110473
0.243508279313
0.215894018892
0.192713098493
0.173162015528
0.156514389627
0.142141101048
0.129511559439
0.118185813561
0.107803574253
0.0980731103681
0.0887612790361
0.0796788286852
0.0706744200525
0.0616400791126
0.0525052979138
0.0432320959
0.0338104629447
0.0242536330512
0.0145926503716
0.00486981628589
0.780552478364
0.780376764826
0.780022590967
0.779485770141
0.778759687208
0.777834671264
0.776697778787
0.77533238752
0.773717550023
0.771827063454
0.769628179039
0.76707982388
0.764130133588
0.760712974892
0.756742951595
0.752108049524
0.746658512049
0.740189388435
0.732411941872
0.722904563214
0.711023700141
0.695733424574
0.675268420368
0.646486243845
0.603934109838
0.541104923662
0.474626135055
0.412781501508
0.358351741898
0.311715525938
0.272316092252
0.239291472658
0.212034558669
0.189382203038
0.170340159245
0.154086024908
0.139948961657
0.127386122825
0.11596102597
0.105325202338
0.0952032178532
0.0853745422871
0.0756645103768
0.0659485557162
0.0561448737555
0.0462083462676
0.036125032636
0.0259065845379
0.015583968834
0.0052000293281
0.884491763643
0.884397979605
0.884202893045
0.883907101584
0.883507111787
0.882997247336
0.882369844406
0.88161508653
0.880720593568
0.879670822002
0.87844623471
0.877022148613
0.875367113348
0.873440585184
0.87118951001
0.868543155
0.865405015081
0.861639564104
0.857049332678
0.851332428353
0.843996434174
0.834163598588
0.820069080565
0.797563934322
0.754954555886
0.652791298312
0.556165513636
0.474016218044
0.405648518749
0.349057112681
0.302308260088
0.263698834384
0.232106503791
0.206186838468
0.184633340921
0.166412050469
0.150702099437
0.136851568914
0.124343528252
0.112769718743
0.101810192725
0.09121153396
0.0807748166703
0.0703581693824
0.0598679674574
0.0492515795549
0.0384908656866
0.0275956945679
0.0165967894278
0.00553737489651
1
1
1
1
1
1
1
1
1
1
1
1
1
1
1
1
1
1
1
1
1
1
1
1
1
0.778180494675
0.637947215781
0.534134743884
0.452270490151
0.38618592028
0.332368798767
0.288354644764
0.252479087198
0.223289113688
0.199201414484
0.178984481713
0.161673239761
0.146508886375
0.132894561867
0.120362006136
0.108546280152
0.0971605132181
0.0859813092087
0.0748492452369
0.0636586550434
0.0523492145463
0.040898442498
0.0293143073794
0.017627180688
0.00588055480472
1
1
1
1
1
1
1
1
1
1
1
1
1
1
1
1
1
1
1
1
1
1
1
1
1
0.833926069006
0.695812360303
0.58444840457
0.494350131933
0.421080940839
0.361327545586
0.312503788998
0.272682691639
0.240384919537
0.213839353582
0.191659822374
0.172758413218
0.156280315086
0.141554302233
0.128054930843
0.115373663395
0.103190740334
0.0912588449524
0.0794012520262
0.067500356393
0.0554881740547
0.0433378800432
0.0310555180972
0.0186710653065
0.0062282227383
1
1
1
1
1
1
1
1
1
1
1
1
1
1
1
1
1
1
1
1
1
1
1
1
1
0.862697638399
0.734892100491
0.623879873144
0.530302501255
0.452515112902
0.388323538716
0.335542363279
0.292308535474
0.25719503859
0.228352517714
0.204298916963
0.183855403135
0.166088724362
0.150263068973
0.135801301067
0.122254391572
0.109271342639
0.096582173747
0.0839935799458
0.0713764361965
0.0586553422716
0.0457992677035
0.0328124021093
0.0197243533507
0.00657902782145
1
1
1
1
1
1
1
1
1
1
1
1
1
1
1
1
1
1
1
1
1
1
1
1
1
0.879522274228
0.761745608975
0.654229751123
0.560207299976
0.480094567218
0.412908476121
0.357083876947
0.311054856665
0.273494223681
0.24257447209
0.216777990034
0.194870780325
0.175862258553
0.158964511449
0.143556131016
0.129152039275
0.115372561634
0.101926893054
0.0886062788893
0.0752707743174
0.0618379988992
0.0482729862205
0.0345782331007
0.0207830690249
0.00693165611127
1
1
1
1
1
1
1
1
1
1
1
1
1
1
1
1
1
1
1
1
1
1
1
1
1
0.890388521928
0.780861429241
0.677699935448
0.584869208337
0.503968798327
0.434976508463
0.376950060245
0.328737222769
0.289123433828
0.2563768182
0.228995757981
0.205724903966
0.185537863969
0.167608139811
0.151278499738
0.136033103731
0.121466820108
0.107270273667
0.0932207015943
0.0791682653293
0.0650242010072
0.0507499892922
0.0363466761951
0.02184346328
0.00728486753173
1
1
1
1
1
1
1
1
1
1
1
1
1
1
1
1
1
1
1
1
1
1
1
1
1
0.897968061075
0.795007715227
0.69613105707
0.605256339095
0.524548434489
0.454642497266
0.395121701546
0.345274271263
0.303988179553
0.269671387959
0.240876324764
0.216354536819
0.195063414942
0.176150996961
0.158932859375
0.142868035097
0.127529534301
0.112591902003
0.0978200117596
0.0830552177889
0.0682030910603
0.053222032458
0.0381119459482
0.0229021063966
0.00763752633874
1
1
1
1
1
1
1
1
1
1
1
1
1
1
1
1
1
1
1
1
1
1
1
1
1
0.903578646501
0.805869245541
0.71089423253
0.622256178975
0.542322113706
0.47213504159
0.411682424416
0.360662915407
0.318048629218
0.28240694959
0.252368619809
0.226713306483
0.204398481341
0.184558451368
0.166489756116
0.149631861741
0.133539638177
0.117874112337
0.102389536185
0.0869196370313
0.0713651188155
0.0556818402598
0.0398689230283
0.023955956949
0.00798862393582
1
1
1
1
1
1
1
1
1
1
1
1
1
1
1
1
1
1
1
1
1
1
1
1
1
0.90793056827
0.814490250272
0.722970670796
0.636602045552
0.557761033905
0.48772219891
0.426773204162
0.374953130193
0.331306583607
0.294562887475
0.263443539258
0.236770554609
0.213513988998
0.192804226053
0.173926014773
0.156304430142
0.139479825624
0.123102208954
0.106916958621
0.0907513885114
0.0745021741741
0.0581232091698
0.0416132276702
0.0250024059438
0.00833729362394
1
1
1
1
1
1
1
1
1
1
1
1
1
1
1
1
1
1
1
1
1
1
1
1
1
0.911436022727
0.821536498797
0.733055407624
0.648871937474
0.571278465724
0.50166165302
0.44056641063
0.388226871399
0.343792372636
0.306141755856
0.274089890341
0.246509187637
0.222391111616
0.200869851625
0.181224492558
0.162870319418
0.145336545619
0.128264499314
0.111392368445
0.0945422500052
0.0776076362712
0.0605410495654
0.0433412518129
0.0260392970988
0.008682817572
1
1
1
1
1
1
1
1
1
1
1
1
1
1
1
1
1
1
1
1
1
1
1
1
1
0.914348945468
0.827445535259
0.741642692673
0.659512879206
0.583224161081
0.514197974149
0.453225985502
0.400576747187
0.355552441347
0.317161904878
0.28431001388
0.255923084322
0.231019733495
0.208743750302
0.188373530074
0.169318511295
0.151099802662
0.133352173094
0.115808187956
0.0982858691628
0.0806763502318
0.0629313744901
0.0450501548454
0.0270649259341
0.00902462685226
1
1
1
1
1
1
1
1
1
1
1
1
1
1
1
1
1
1
1
1
1
1
1
1
1
0.916833432692
0.832513353809
0.749087636506
0.668868671975
0.593889888227
0.525567637395
0.464882711006
0.412092810719
0.366640481388
0.327651479399
0.294115818115
0.265014513484
0.239396772936
0.216420139568
0.195366224512
0.175641900172
0.156762820823
0.138359068097
0.120159007618
0.101977647568
0.0837045467019
0.0652912456435
0.0467378298087
0.028078021662
0.00936229582633
1
1
1
1
1
1
1
1
1
1
1
1
1
1
1
1
1
1
1
1
1
1
1
1
1
0.918999633488
0.836945399172
0.75564832412
0.677202499731
0.603510355237
0.535961088443
0.475666120394
0.422863584175
0.377113293187
0.337644290264
0.303525579236
0.273791832596
0.247524566588
0.223897900491
0.202199629637
0.181836719283
0.162321626867
0.143281363897
0.124441359489
0.105614573585
0.0866897209067
0.0676186892728
0.0484028487474
0.0290777166224
0.00969553236946
1
1
1
1
1
1
1
1
1
1
1
1
1
1
1
1
1
1
1
1
1
1
1
1
1
0.920923762028
0.84088744806
0.761514466951
0.684715653672
0.612271928303
0.545534219597
0.485693344699
0.432972659057
0.387027535833
0.347176766671
0.31256142184
0.282267545702
0.255409419239
0.231179504873
0.208873959326
0.187901943642
0.167774599544
0.148117239394
0.128653457195
0.109195027443
0.0896304890082
0.0699125936383
0.0500443944444
0.0300635074729
0.0100241653438
1
1
1
1
1
1
1
1
1
1
1
1
1
1
1
1
1
1
1
1
1
1
1
1
1
0.922659874107
0.844444933591
0.766827079675
0.691562316249
0.620321027914
0.554415716525
0.495066593917
0.442496262065
0.3964373282
0.356285700268
0.321247372162
0.290456722802
0.263060362974
0.238270054732
0.215391845369
0.193838714
0.173122021934
0.15286652598
0.132794928732
0.112718576309
0.0925264341084
0.0721725978087
0.05166218572
0.031035212382
0.0103481307059
1
1
1
1
1
1
1
1
1
1
1
1
1
1
1
1
1
1
1
1
1
1
1
1
1
0.924247121042
0.847695460244
0.771692332338
0.697861444803
0.62777099437
0.562713163685
0.503873004023
0.451501975003
0.405392682662
0.365006657302
0.329607907325
0.298375759561
0.270488137378
0.245176460236
0.221757679839
0.199649811701
0.178365665265
0.157530378905
0.136866557898
0.11618577388
0.0953779544989
0.074398981228
0.0532564027347
0.0319929279781
0.0106674574808
1
1
1
1
1
1
1
1
1
1
1
1
1
1
1
1
1
1
1
1
1
1
1
1
1
0.925714377471
0.850697099911
0.776191511122
0.703707887969
0.634723897812
0.570501947785
0.512183501842
0.460048213512
0.413938679599
0.373372972103
0.337666937176
0.306041446323
0.27770438446
0.251906764277
0.227977057451
0.205339203311
0.183508420398
0.162110981127
0.140870049205
0.119597976766
0.0981861237867
0.0765925614241
0.0548276174953
0.032936989144
0.010982254626
1
1
1
1
1
1
1
1
1
1
1
1
1
1
1
1
1
1
1
1
1
1
1
1
1
0.927083234906
0.85349379054
0.780387071595
0.70917539222
0.641255947874
0.57784880429
0.520058060394
0.468185417633
0.422115421162
0.381415245767
0.345447152816
0.313470306737
0.28472104021
0.258469609869
0.234056323042
0.210911662492
0.188553986354
0.166611290586
0.144807825922
0.122957186106
0.10095256994
0.0787546053855
0.0563767335325
0.0338679340454
0.0112926995823
1
1
1
1
1
1
1
1
1
1
1
1
1
1
1
1
1
1
1
1
1
1
1
1
1
0.9283700059
0.856119042788
0.784327168047
0.714321271921
0.64742635374
0.584809920114
0.527547543035
0.475957088383
0.429958290473
0.38916117145
0.352969651955
0.32067815657
0.291549896965
0.264873839678
0.240002220569
0.216372470507
0.193506620973
0.17103483671
0.148682867174
0.126265919949
0.103679378034
0.0808867584532
0.0579049375606
0.0347864761055
0.0115990290895
1
1
1
1
1
1
1
1
1
1
1
1
1
1
1
1
1
1
1
1
1
1
1
1
1
0.929587116186
0.85859858425
0.788049087472
0.719190266215
0.65328189307
0.591431985853
0.534695026148
0.483400672154
0.437498326068
0.396635553515
0.360253759654
0.327679833699
0.29820230776
0.271128211522
0.245821636097
0.221727193863
0.198370954712
0.175385568662
0.152498587229
0.129527119563
0.106369019588
0.0829909931374
0.05941366492
0.0356934840428
0.0119015326455
1
1
1
1
1
1
1
1
1
1
1
1
1
1
1
1
1
1
1
1
1
1
1
1
1
0.930744097885
0.860952282984
0.791581807326
0.723817328908
0.658859384624
0.597754157201
0.541537119215
0.490548396268
0.444762648625
0.403860445142
0.367316981347
0.334489057808
0.304689008845
0.277241214229
0.251521426285
0.226981535006
0.203151866176
0.179667755493
0.15625875801
0.132744091067
0.109024309909
0.0850695790964
0.0609045797581
0.0365899705756
0.0122005488193
1
1
1
1
1
1
1
1
1
1
1
1
1
1
1
1
1
1
1
1
1
1
1
1
1
0.93184832668
0.863195603885
0.794947981128
0.728229607524
0.664185382544
0.603811933851
0.548105242248
0.497427952197
0.451774853715
0.410855334458
0.374175056915
0.341118391803
0.311020038299
0.283220974106
0.25710832812
0.232141249338
0.207854416584
0.183885937159
0.15996747471
0.135920482732
0.111648393936
0.0871250747641
0.0623795703329
0.0374770900391
0.012496464511
1
1
1
1
1
1
1
1
1
1
1
1
1
1
1
1
1
1
1
1
1
1
1
1
1
0.932905589422
0.865340777012
0.798165763137
0.732449640279
0.669285575224
0.609630545018
0.554425034847
0.50406280587
0.458555330745
0.417637329171
0.380842033032
0.347579258112
0.317204713284
0.289075218243
0.262588930541
0.237212136419
0.212483845409
0.18804492904
0.163629167558
0.139060300972
0.114244763305
0.0891603428467
0.0638407610427
0.0383561458235
0.0127897173462
1
1
1
1
1
1
1
1
1
1
1
1
1
1
1
1
1
1
1
1
1
1
1
1
1
0.933920499866
0.867397639651
0.801249985034
0.736496385421
0.674182454359
0.615229588547
0.560517422611
0.510472751308
0.465121649191
0.424221432636
0.387330430184