/*--------------------------------*- C++ -*----------------------------------*\
| =========                 |                                                 |
| \\      /  F ield         | OpenFOAM: The Open Source CFD Toolbox           |
|  \\    /   O peration     | Version:  5.x                                   |
|   \\  /    A nd           | Web:      www.OpenFOAM.org                      |
|    \\/     M anipulation  |                                                 |
\*---------------------------------------------------------------------------*/
FoamFile
{
    version     2.0;
    format      ascii;
    class       volScalarField;
    location    "1382";
    object      T;
}
// * * * * * * * * * * * * * * * * * * * * * * * * * * * * * * * * * * * * * //

dimensions      [0 0 0 1 0 0 0];

internalField   nonuniform List<scalar> 
250000
(
0.00957300224316
0.00956685505376
0.00955452048115
0.00953592559868
0.00951095341794
0.00947944300611
0.00944119088903
0.00939595332426
0.0093434496878
0.00928336727452
0.0092153677263
0.00913909521143
0.00905418637265
0.0089602819271
0.00885703963892
0.00874414820642
0.00862134142535
0.00848841183027
0.00834522290313
0.00819171889683
0.00802793137399
0.00785398172136
0.00767007916606
0.0074765141745
0.00727364751758
0.00706189556158
0.00684171352424
0.00661357684314
0.00637796285165
0.00613533418986
0.00588612504246
0.00563073140769
0.00536950662293
0.00510276426404
0.00483079468428
0.00455366690688
0.00427127023394
0.00398352803784
0.00369040764839
0.00339192902537
0.00308817301009
0.00277928899364
0.00246550162996
0.00214711615399
0.00182452180124
0.00149819269293
0.00116868535751
0.000836631793213
0.000502726088728
0.00016770216912
0.0287313045869
0.0287128889342
0.0286759298014
0.0286202195896
0.0285454078058
0.028451011158
0.0283364180867
0.0282008953071
0.0280435976434
0.0278635821872
0.0276598274222
0.0274312576976
0.0271767731349
0.0268952846425
0.0265857532238
0.0262472322067
0.0258789104643
0.0254801541914
0.0250505444391
0.0245899074593
0.02409833506
0.0235761926432
0.0230241134181
0.0224429783728
0.0218338828471
0.0211980914499
0.0205369865188
0.0198520109751
0.0191446118805
0.0184161894546
0.0176680546412
0.0169013987052
0.0161172777009
0.0153166149392
0.0145002265633
0.0136684108339
0.0128208218891
0.0119572213529
0.0110775027422
0.0101817165947
0.00927009526571
0.0083430761636
0.00740132213522
0.0064457376246
0.00547747903511
0.00449795733191
0.00350883038476
0.00251198186213
0.001509482092
0.000503544073294
0.0479379461617
0.0479073363076
0.0478459630513
0.0477534604089
0.04762924323
0.0474725050399
0.0472822226803
0.0470571659011
0.046795913015
0.0464968738247
0.0461583209423
0.0457784302921
0.0453553310799
0.0448871648121
0.044372152092
0.0438086649443
0.0431953014111
0.0425309582412
0.0418148967879
0.0410467968999
0.0402267937656
0.0393554934466
0.0384339642354
0.0374637029056
0.0364465771761
0.0353847474499
0.0342805766398
0.0331365302912
0.031955077535
0.030738601623
0.0294893252089
0.0282092560456
0.0269001568519
0.0255635418234
0.0242007014694
0.0228122597991
0.0213976249715
0.0199563810792
0.0184883283547
0.0169935258323
0.0154723337419
0.0139254532486
0.0123539612545
0.0107593378881
0.00914348399624
0.00750872540319
0.0058578001855
0.00419382514675
0.00252023917508
0.00084073962755
0.067250107744
0.0672075333673
0.0671221792994
0.0669935390403
0.0668207924096
0.0666028041569
0.0663381285681
0.0660250209853
0.0656614577819
0.0652451666539
0.0647736690181
0.0642443359077
0.0636544580503
0.0630013298238
0.0622823455195
0.0614951048749
0.0606375232765
0.0597079405431
0.0587052209935
0.0576288368183
0.0564789268517
0.0552563238529
0.0539625454243
0.0525997466293
0.0511706358976
0.0496783587122
0.0481263619924
0.0465182435002
0.0448576018759
0.0431479009386
0.0413923560836
0.0395938509098
0.0377548886239
0.0358775797429
0.0339636648021
0.0320141703545
0.0300282509773
0.0280052940827
0.0259449798986
0.0238473443253
0.0217128409484
0.0195423988119
0.0173374726766
0.0151000823814
0.012832837585
0.0105389437229
0.00822218511522
0.0058868827886
0.00353783056758
0.00118024132493
0.0867448988834
0.0866907092842
0.0865820775027
0.0864183536224
0.086198476873
0.0859209715897
0.0855839500393
0.0851851236818
0.0847218251394
0.0841910436235
0.0835894765533
0.0829135996534
0.0821597569596
0.0813242708628
0.0804035706194
0.079394335697
0.078293648051
0.0770991451501
0.0758091635847
0.0744228617717
0.0729403099832
0.0713625370241
0.0696915255347
0.067930152048
0.0660820731659
0.0641515638834
0.062143325817
0.060062272994
0.0579133174417
0.0557011746205
0.0534302004189
0.0511042710756
0.0487267116848
0.0463002739696
0.0438271595777
0.0413088537642
0.0387442489554
0.0361325119223
0.0334731678445
0.0307661868892
0.0280120686435
0.0252119200124
0.0223675223384
0.0194813834494
0.0165567701758
0.013597716913
0.0106090071309
0.00759612872571
0.00456521479901
0.0015230179916
0.106518245603
0.106452939121
0.106322026103
0.106124708352
0.105859673714
0.105525087511
0.105118590904
0.104637308713
0.104077869953
0.103436445043
0.10270880371
0.10189039721
0.1009764675
0.0999621844581
0.0988428100393
0.0976138855431
0.0962714349541
0.0948121739533
0.0932337110189
0.0915347245962
0.0897150992156
0.087776004273
0.085719902393
0.0835504799264
0.0812724997318
0.0788915837588
0.0764139491079
0.0738461104662
0.0711945803585
0.0684655962249
0.0656648920131
0.0627975302375
0.0598678018146
0.0568791934858
0.0538344163744
0.0507354538802
0.0475809231317
0.0443697371982
0.0411012181533
0.0377752118264
0.034392198368
0.0309533931507
0.0274608328351
0.0239174416335
0.0203270730571
0.0166945233023
0.0130255153183
0.00932665894695
0.00560540676348
0.00187006692347
0.126684489752
0.126608720756
0.126456832453
0.126227870551
0.125920256389
0.125531771431
0.125059547671
0.124500067702
0.123849179086
0.123102128538
0.12225362169
0.121297913961
0.120228937025
0.119040463684
0.117726311282
0.116280580304
0.11469792047
0.112973811745
0.111104842733
0.109088964597
0.106925695948
0.104616254051
0.102163591099
0.0995723217088
0.0968485386382
0.093999525318
0.0910333962668
0.0879586865401
0.0847839350009
0.0815173035824
0.0781662596105
0.074737343822
0.0712360337035
0.0676667005633
0.0640326499242
0.0603363878577
0.0565762329757
0.0527507953027
0.0488591247598
0.0449008600616
0.0408763705129
0.0367868839899
0.032634595115
0.0284227483181
0.0241556913915
0.019838897018
0.015478954176
0.0110835393705
0.00666139351779
0.00222237387311
0.147376673149
0.147291256621
0.147120018553
0.146861838388
0.14651485296
0.146076430704
0.14554314953
0.144910783549
0.144174304942
0.143327908446
0.14236506653
0.141278623323
0.140060934596
0.138704059295
0.137200005231
0.13554102718
0.133719970022
0.131730642657
0.129568200848
0.127229509872
0.124713452147
0.122021142726
0.119156018357
0.116123774937
0.112932143594
0.109590513801
0.106109443895
0.10250009314
0.0987736402183
0.0949407503903
0.0910111332576
0.0869932236316
0.0828939980762
0.0787189227565
0.0744720156046
0.0701563116458
0.065769788678
0.0613106769938
0.0567776525344
0.0521700283833
0.0474879349507
0.0427324807834
0.0379058873723
0.033011592728
0.0280543202035
0.0230401118922
0.017976331518
0.0128716504769
0.00773604625956
0.00258088557563
0.168747620237
0.168653534691
0.168464898131
0.168180412957
0.16779791297
0.167314323084
0.166725618949
0.166026793216
0.165211836643
0.164273743886
0.163204554866
0.161995443176
0.160636862656
0.159118761841
0.157430872975
0.155563077387
0.153505841963
0.151250712054
0.148790835
0.146121476465
0.143240480999
0.140148621375
0.136849781604
0.133350928824
0.129661850637
0.125794663059
0.121763140964
0.117581925773
0.113265706492
0.108828467955
0.10428287208
0.0996398191811
0.0949082051746
0.0900948645241
0.085204670584
0.0802411645116
0.0752019070825
0.070084628079
0.064887477911
0.0596092738246
0.054249728437
0.0488096511734
0.0432911156662
0.0376975884605
0.0320340168894
0.0263068775812
0.0205241932435
0.0146955337541
0.00883203128562
0.00294648060058
0.190971906549
0.190870295157
0.190666540516
0.190359158689
0.189945664529
0.189422511797
0.188785027569
0.188027349237
0.187142374378
0.186121735945
0.184955817064
0.183633821096
0.182143913266
0.180473449503
0.178609305723
0.176538315739
0.174247817709
0.171726296919
0.168964096719
0.165954150591
0.162692669038
0.159179699446
0.155419471
0.151420446075
0.147195028202
0.142758921351
0.13813020623
0.133328221088
0.128372393345
0.123281167337
0.118071132618
0.112756421315
0.107348392798
0.101855583556
0.0962838740855
0.0906372380488
0.0849126850878
0.0791072544753
0.0732183456688
0.0672440363463
0.0611833727238
0.0550366216316
0.0488054776686
0.0424932220154
0.0361048326852
0.0296470499749
0.0231284069988
0.0165592422794
0.00995172216324
0.00331994027681
0.214248805628
0.214140975748
0.21392471299
0.21359834189
0.213159048984
0.212602797415
0.211924227957
0.211116556212
0.210171478281
0.209079100103
0.207827908445
0.206404804222
0.204795220917
0.202983351891
0.200952509437
0.198685634324
0.196165965946
0.193377868558
0.190307787407
0.186945280146
0.183284036138
0.179322765016
0.175065815611
0.170523388981
0.165711245058
0.160649871537
0.15536319531
0.149876976523
0.14421711525
0.13840810233
0.132471782234
0.126426527574
0.120286841831
0.114063343838
0.10776305093
0.101390207218
0.0949410413144
0.0884116055805
0.0817982152395
0.0750978616218
0.0683085815557
0.061429772074
0.0544624450538
0.0474094205969
0.0402754615476
0.0330673554125
0.0257939553479
0.0184661969271
0.0110971147157
0.00370192048525
0.238806334115
0.23869375463
0.238467919511
0.238126963716
0.237667747235
0.23708573767
0.236374868683
0.235527385216
0.234533689504
0.233382205576
0.232059283994
0.230549172917
0.22883408596
0.226894401062
0.224709026619
0.222255969841
0.219513135234
0.216459365419
0.213075709252
0.209346861471
0.205262665215
0.200819510394
0.196021411746
0.190880532613
0.185416958167
0.179657626362
0.173634506553
0.167382251577
0.160935697929
0.1543275952
0.147586838219
0.140737344737
0.133797581257
0.12678064123
0.119694731168
0.112544053821
0.105323672797
0.0980281968404
0.0906523688939
0.083191605099
0.075642464159
0.0680030377307
0.0602732596172
0.0524551363413
0.0445529051628
0.0365731287261
0.0285247395312
0.0204190498494
0.0122697462768
0.004092924891
0.264906554474
0.264790849896
0.264558693883
0.264208044145
0.263735452118
0.263135906714
0.262402640369
0.261526908889
0.260497760115
0.259301810946
0.25792305761
0.256342750572
0.254539372789
0.252488767918
0.250164472189
0.247538308106
0.244581296322
0.241264929127
0.237562818639
0.233452678894
0.228918520312
0.22395283258
0.21855842738
0.212749543881
0.206551840099
0.200001043588
0.19314033852
0.186016856242
0.178677905108
0.171167589873
0.16352427171
0.155779066099
0.147955334674
0.140068976399
0.132129266014
0.124139806869
0.116093872208
0.107983934019
0.0998024572766
0.091542602178
0.0831988165016
0.0747673137843
0.0662464413527
0.0576369469532
0.0489421552596
0.0401680671123
0.0313233962447
0.0224195575742
0.0134706208926
0.00449328020897
0.292852349319
0.292735289236
0.292500360069
0.29214536826
0.291666596097
0.291058600082
0.290313954844
0.289422953755
0.288373281142
0.287149676121
0.285733614679
0.284103045367
0.282232224983
0.280091713933
0.277648605823
0.274867080131
0.271709376362
0.268137285552
0.264114229315
0.259607933814
0.254593592388
0.249057241759
0.24299887166
0.236434605844
0.229397238654
0.221934603258
0.214105762158
0.205975622149
0.197609104969
0.189066028041
0.18039744641
0.171643703276
0.162834018493
0.15398722395
0.145113207477
0.136214021064
0.127280154008
0.118300907954
0.10926546543
0.100163797152
0.0909873988668
0.0817298647021
0.0723873121776
0.0629586772428
0.0534458979638
0.0438540044458
0.0341911315864
0.024468467023
0.0147001425806
0.00490311421798
0.322995951254
0.322879433318
0.322645542479
0.322291976398
0.321814813795
0.321208261895
0.320464329569
0.319572435695
0.318518965903
0.317286796021
0.315854808042
0.314197435059
0.312284286423
0.310079924176
0.307543886885
0.304631086379
0.30129273249
0.297477961969
0.293136343597
0.288221376195
0.282694955919
0.276532533018
0.269728304845
0.262299373864
0.254287527258
0.2457574596
0.236791124873
0.227479207313
0.217911841347
0.20817072101
0.198323850646
0.188423167249
0.178504546553
0.168589417045
0.158687228799
0.148796916945
0.138904647344
0.128995041055
0.11905259542
0.109062835601
0.0990132087376
0.0888937488731
0.0786975459699
0.0684210514696
0.0580642489603
0.0476307134674
0.0371275781286
0.0265654187951
0.0159580592715
0.00532233739392
0.35574959946
0.355635623883
0.355406796603
0.355060767468
0.354593506908
0.353998998962
0.353268837458
0.35239173184
0.351352931822
0.350133584639
0.348710045869
0.347053176458
0.345127676171
0.34289152977
0.34029567905
0.337284082989
0.333794388674
0.329759499778
0.325110377295
0.319780399235
0.313711475638
0.306861775039
0.299214295549
0.290784641503
0.281625533796
0.271825436427
0.261500050822
0.250778266834
0.239786872176
0.228638178558
0.217422607197
0.206206173651
0.19503162791
0.18392173865
0.172883461066
0.161910119347
0.150981233102
0.140074587659
0.129168080927
0.118241141334
0.107275771243
0.0962572794691
0.0851747633501
0.0740213920645
0.0627945321983
0.0514957459233
0.0401306827168
0.0287088729954
0.0172434205188
0.00575062917292
0.391598802183
0.391489435557
0.391269838679
0.390937693386
0.390488988054
0.389917655835
0.389215091949
0.388369551771
0.387365432583
0.386182444459
0.384794681338
0.383169613689
0.381267042222
0.379038081873
0.376424292275
0.373357141626
0.369758091146
0.365539717796
0.360608439448
0.354869522615
0.348235033963
0.340635058111
0.332031597189
0.322432916826
0.311903968298
0.300567136496
0.288589308507
0.276157546091
0.263452852857
0.250630498931
0.237809982869
0.22507338999
0.212469172674
0.200018496018
0.187722139087
0.175563962656
0.163513437264
0.15153852211
0.139607975555
0.127693019562
0.115768484816
0.103813553555
0.0918121973983
0.0797533855454
0.0676311182775
0.0554443228164
0.0431966337887
0.030896063512
0.0185545523584
0.00618742994013
0.431118817056
0.431016143364
0.430809986362
0.430498156439
0.430076814668
0.429540060322
0.428879373441
0.428082908006
0.427134629819
0.426013292514
0.424691246739
0.423133083545
0.421294126858
0.419118817361
0.416539080221
0.413472855297
0.409823108692
0.405477858706
0.400312048577
0.394192458299
0.386987151706
0.378580902254
0.368897053517
0.35792355721
0.345736102247
0.332505987393
0.318480684842
0.303938837719
0.289143119457
0.27430883526
0.259591744615
0.245090058922
0.230853869438
0.216896877825
0.203207504647
0.1897543931
0.176492148405
0.1633748933
0.150358990237
0.137404851929
0.124478075991
0.111550092141
0.0985984632005
0.0856069404341
0.0725653408603
0.0594692880252
0.0463198374506
0.0331229867661
0.0198890526919
0.00663193982803
0.474995124111
0.47490118108
0.474712586051
0.474427385764
0.47404208958
0.473551215883
0.472946672091
0.472216956681
0.471346166754
0.470312789264
0.469088249288
0.467635186262
0.465905432212
0.463837680993
0.461354875897
0.458361424967
0.454740512316
0.450352060867
0.445032384542
0.438597306647
0.430851490198
0.421607613077
0.410718848435
0.39812478773
0.383901560486
0.368291130219
0.351674450553
0.334480385803
0.317096683484
0.299821018899
0.282850721741
0.26629517125
0.250196521931
0.234550395757
0.219323033775
0.204459603205
0.189893308624
0.1755592826
0.161397494182
0.147354473846
0.133384232259
0.119448642298
0.105517468393
0.0915681637648
0.0775855098314
0.0635611382099
0.0494929509534
0.0353844303829
0.0212438101779
0.0070831252701
0.524048865462
0.523965565018
0.523798402612
0.523545770363
0.52320470763
0.522770422269
0.52223562972
0.521589691142
0.520817522993
0.51989823935
0.518803475072
0.517495323087
0.51592380407
0.514023776054
0.511711195379
0.508878680779
0.505390453818
0.501077015828
0.495730524014
0.489102983206
0.480911362327
0.470856674643
0.458667046257
0.444174124977
0.427418667078
0.408741839135
0.388762198006
0.368167326266
0.347538106844
0.327279540491
0.307627424839
0.28868625714
0.270470938097
0.25294115944
0.23602626861
0.219636692813
0.203675834946
0.188053569851
0.172688833544
0.157510846087
0.142459492134
0.127485196197
0.112548502117
0.0976194813102
0.0826770378165
0.0677081397811
0.0527069803635
0.0376740458438
0.0226150487644
0.00753973397127
0.579268467704
0.579197500256
0.57905519046
0.578840370509
0.578550774121
0.578182555073
0.577729617158
0.577182730604
0.576528397644
0.575747413009
0.574813042896
0.57368871643
0.572325084921
0.570656255475
0.56859494924
0.566026282893
0.562799860898
0.558719986956
0.553534267677
0.546922142243
0.538487799479
0.527767926064
0.514275022693
0.49760920014
0.477668100514
0.454912733983
0.430431328698
0.405381177154
0.380636695777
0.356724361189
0.33389137395
0.312199304141
0.291600729154
0.271991608798
0.253243870455
0.235218863989
0.217780151896
0.200805277712
0.184187152765
0.167834143805
0.151669472654
0.135630278274
0.119666534365
0.103739921032
0.0878226916208
0.0718965395354
0.0559514460184
0.0399844669459
0.0239983986831
0.00800031852509
0.641848953985
0.641791678341
0.641676957915
0.641504123957
0.641271717791
0.640977035202
0.640615488748
0.640179759211
0.639658692825
0.639035879777
0.638287819851
0.637381538177
0.636271451626
0.634895195205
0.633167985529
0.630974911346
0.628160291712
0.624512958128
0.61974614092
0.613471052374
0.605165618682
0.594147529276
0.579581161779
0.56059214643
0.536628810175
0.508188357739
0.477436930158
0.446422303167
0.416428946266
0.388063789037
0.361501774582
0.336684731388
0.313445537589
0.291577098713
0.270867961461
0.251113894493
0.232127826593
0.213747806477
0.195835911033
0.178276378373
0.160973501403
0.143849537952
0.126842745362
0.109905569018
0.0930029720457
0.0761108694095
0.0592146149107
0.0423074729066
0.0253889930145
0.00846326835202
0.713240804235
0.713198124391
0.71311278692
0.712984615614
0.712812976129
0.712596378408
0.712331920661
0.712014544405
0.711636056962
0.711183855912
0.71063925736
0.709975280116
0.709153660676
0.708120751836
0.706801761274
0.705092465554
0.702847007047
0.69985951725
0.695835942061
0.690350488737
0.682779155434
0.672204299665
0.657302728079
0.636309301745
0.607400986382
0.570399685631
0.530467572506
0.491331286565
0.454681144348
0.420988847389
0.390160197804
0.361883522386
0.335790156746
0.311521755892
0.288755295012
0.267204815609
0.246622840594
0.226801856658
0.207569252575
0.18878263179
0.170325688925
0.152104660177
0.134045285191
0.116090192577
0.0981966148157
0.0803343381037
0.0624837937913
0.0446341914599
0.0267815869707
0.00892684900063
0.795210614423
0.795182847725
0.795127465938
0.795044675407
0.794934528981
0.794796616716
0.794629646684
0.794430878724
0.794195375652
0.793915017757
0.793577197363
0.793163064733
0.792645123258
0.791983849973
0.791122808351
0.789981349764
0.78844332074
0.786338904532
0.783414201405
0.779278086069
0.77330566384
0.764457930063
0.750946065539
0.729662275026
0.695604640776
0.643825297757
0.589690397104
0.539510747253
0.494672560816
0.454869736927
0.419367908932
0.387413110119
0.358342510872
0.331600978026
0.306731044401
0.283353698881
0.261154931112
0.239878229031
0.219314299524
0.199292914828
0.179676427356
0.160354570361
0.141240238747
0.122266007581
0.103381193123
0.0845492939106
0.0657456711265
0.0469553336923
0.028170695047
0.00938924721609
0.889916199992
0.889903010986
0.889876648805
0.889837525014
0.88978601489
0.889722345626
0.88964637175
0.88955726174
0.889453079251
0.889330229745
0.889182723806
0.889001180326
0.888771446749
0.888472634931
0.888074231062
0.887531677509
0.886779315495
0.885718525732
0.884196585075
0.881966254235
0.878601945477
0.873308549167
0.864437133488
0.84811584691
0.813947360808
0.730151565122
0.653403671076
0.589032475184
0.53493236389
0.488681042094
0.448418449598
0.412779217864
0.380748215016
0.3515539952
0.324598606052
0.299409046812
0.275605116632
0.252881969739
0.230994287587
0.20974456259
0.188974237511
0.168556868737
0.148392743773
0.128404549061
0.108533790306
0.0887377351452
0.0689866908699
0.0492614491418
0.0295507394357
0.00984861962256
1
1
1
1
1
1
1
1
1
1
1
1
1
1
1
1
1
1
1
1
1
1
1
1
1
0.822993836034
0.71469839266
0.635795164291
0.573154401279
0.52107389439
0.476474500684
0.437431439424
0.402627323261
0.37110779016
0.342155340993
0.315216372463
0.289852983425
0.265717513563
0.242532280726
0.220074972466
0.198167821563
0.17666938957
0.155468185335
0.134477588854
0.113631701549
0.0928818384701
0.0721934371673
0.0515431873558
0.0309162018468
0.0103031424727
1
1
1
1
1
1
1
1
1
1
1
1
1
1
1
1
1
1
1
1
1
1
1
1
1
0.863618508153
0.757407900119
0.674206245558
0.606892921001
0.55075795511
0.502761719075
0.460863685613
0.423629049424
0.390008604842
0.359211666698
0.330630313037
0.303784689001
0.27829416129
0.253855034988
0.230224400425
0.207208129643
0.184651753422
0.162433374625
0.140458035159
0.11865311832
0.0969644723659
0.0753530073319
0.0537915510921
0.0322617703622
0.0107510597586
1
1
1
1
1
1
1
1
1
1
1
1
1
1
1
1
1
1
1
1
1
1
1
1
1
0.885011889803
0.786446591468
0.704237079332
0.635449429132
0.577102057332
0.526798244109
0.482717195451
0.443484191022
0.408051219488
0.375608559468
0.345525668199
0.317300235456
0.290531051095
0.26489650314
0.240138496489
0.216050233424
0.192466774519
0.169257618005
0.146320748731
0.123577749821
0.100969663771
0.0784533511405
0.0559981268856
0.0335824732784
0.0111907270862
1
1
1
1
1
1
1
1
1
1
1
1
1
1
1
1
1
1
1
1
1
1
1
1
1
0.898151148447
0.806948793674
0.727642371058
0.659251196442
0.600080221812
0.548426662925
0.502814015712
0.462029322082
0.425095308713
0.391228547615
0.359804895102
0.330318685639
0.302360868787
0.275600529533
0.249770299458
0.224654826661
0.200081603966
0.175913595385
0.152043219799
0.128387342376
0.104882990557
0.0814835576833
0.0581552807642
0.0348737930473
0.0116206490884
1
1
1
1
1
1
1
1
1
1
1
1
1
1
1
1
1
1
1
1
1
1
1
1
1
0.907191307106
0.822157135603
0.746184429949
0.679103665773
0.620001835154
0.567723738423
0.521129828931
0.479200991807
0.441066432172
0.405998466837
0.373400968361
0.342780646158
0.313731874508
0.285922466102
0.259081515569
0.232989235812
0.207468529233
0.182377992689
0.157606066794
0.133066069127
0.108691880291
0.0844340761889
0.0602563101942
0.0361317552492
0.0120395087322
1
1
1
1
1
1
1
1
1
1
1
1
1
1
1
1
1
1
1
1
1
1
1
1
1
0.913925055698
0.833962888012
0.761208558564
0.695809060264
0.637294151506
0.584892565999
0.537743575182
0.4950129987
0.455946176904
0.419885501789
0.386276080825
0.354648130739
0.32460824059
0.29582967138
0.268043039408
0.241027904373
0.214605400561
0.188631865505
0.162993339299
0.137600776689
0.112385805294
0.0872968636025
0.0622955473605
0.0373529897576
0.0124461875875
1
1
1
1
1
1
1
1
1
1
1
1
1
1
1
1
1
1
1
1
1
1
1
1
1
0.919225248631
0.843477187649
0.773660972475
0.710037606749
0.652382996248
0.600182813784
0.552790193437
0.509529891946
0.469757707906
0.432889450091
0.398417568949
0.365902464439
0.334969020779
0.305301050039
0.276634795326
0.24875238983
0.221475703278
0.194660742751
0.168192628854
0.141981089784
0.115956373798
0.0900654582374
0.0642684130584
0.0385347635733
0.0128397768692
1
1
1
1
1
1
1
1
1
1
1
1
1
1
1
1
1
1
1
1
1
1
1
1
1
0.923563220136
0.851375851511
0.784193937423
0.722311784619
0.66564328846
0.613844186467
0.566426368217
0.52284422897
0.482551420504
0.44503391695
0.409832578583
0.376541071938
0.344806223449
0.314325901899
0.284845055303
0.256150965452
0.228068331696
0.200454504518
0.173195008842
0.146199387149
0.119397325524
0.0927349846394
0.0661714242326
0.0396749869137
0.0132195797405
1
1
1
1
1
1
1
1
1
1
1
1
1
1
1
1
1
1
1
1
1
1
1
1
1
0.927215945319
0.858087604458
0.793259566338
0.733028249343
0.677386699269
0.626104211464
0.578809471841
0.535060068236
0.494393096703
0.456358217806
0.420542649614
0.386573898334
0.354122457245
0.322902373425
0.292669417887
0.263217944651
0.2343771406
0.206007083852
0.177994836422
0.150250670694
0.122704446294
0.0953020992275
0.0680021611302
0.0407721958119
0.0135851059085
1
1
1
1
1
1
1
1
1
1
1
1
1
1
1
1
1
1
1
1
1
1
1
1
1
0.930357617346
0.863896003509
0.801176493992
0.742486370615
0.687865486577
0.637160491978
0.590086423358
0.546282362016
0.505355232213
0.46691085229
0.430578924412
0.396019986406
0.362928519868
0.331035767087
0.300109622149
0.269952846162
0.240400355097
0.211316047947
0.182589454807
0.154132354397
0.125875419922
0.0977648890016
0.0697592019219
0.0418255155897
0.0139360599098
1
1
1
1
1
1
1
1
1
1
1
1
1
1
1
1
1
1
1
1
1
1
1
1
1
0.933103944628
0.868995932787
0.808174066762
0.750913171754
0.697281711821
0.647180394674
0.600388922769
0.556610869487
0.515511224284
0.476744878702
0.439978248034
0.404904493325
0.371241173345
0.338736897643
0.30717233695
0.27635950208
0.246139912408
0.216382111697
0.186978833921
0.157844000174
0.128909636645
0.100122736626
0.0714420334578
0.0428346100836
0.0142723246588
1
1
1
1
1
1
1
1
1
1
1
1
1
1
1
1
1
1
1
1
1
1
1
1
1
0.935535298818
0.873526009956
0.814421085911
0.758482597824
0.705797058345
0.656303995413
0.609832353352
0.566137120005
0.524931482991
0.485912475207
0.4487798989
0.413256241603
0.379081240419
0.346020616487
0.313868024437
0.282445186322
0.251600795112
0.22120862865
0.191165183214
0.16138702576
0.131807976367
0.102376164779
0.0730509467037
0.0437996214943
0.0145939418391
1
1
1
1
1
1
1
1
1
1
1
1
1
1
1
1
1
1
1
1
1
1
1
1
1
0.9377096339
0.877587888403
0.820044551465
0.765329686728
0.713541480502
0.664648083019
0.618516616628
0.574943485491
0.533682019218
0.494465373466
0.457024001031
0.421106006112
0.386472103416
0.352904569403
0.320209936888
0.288219814915
0.256790398632
0.225801093867
0.195152563785
0.164764405534
0.134572582441
0.104526671173
0.0745869245657
0.0447211053114
0.0149010905923
1
1
1
1
1
1
1
1
1
1
1
1
1
1
1
1
1
1
1
1
1
1
1
1
1
0.939670080855
0.881258173071
0.825142057732
0.771560799075
0.72062024713
0.672310161041
0.626527794791
0.583103323584
0.541823771391
0.502453482035
0.464750306484
0.428485269099
0.393438551893
0.359408192205
0.32621326973
0.293695245597
0.261717959577
0.230166682229
0.198946519619
0.167980380327
0.137206638536
0.106576563589
0.0760515285311
0.0455999640727
0.0151940657426
1
1
1
1
1
1
1
1
1
1
1
1
1
1
1
1
1
1
1
1
1
1
1
1
1
0.941449637911
0.884596007517
0.829790107529
0.777260967484
0.727119465554
0.679372007273
0.633940024506
0.590681572599
0.549412202075
0.509923312977
0.471997120397
0.435425273128
0.400005907806
0.365551921831
0.331894470646
0.298884686434
0.26639405826
0.234313836042
0.202553740753
0.171040187299
0.139714157626
0.108528801875
0.0774467890614
0.0464373828956
0.0154732565294
1
1
1
1
1
1
1
1
1
1
1
1
1
1
1
1
1
1
1
1
1
1
1
1
1
0.94307417134
0.88764807407
0.834049807516
0.782499197584
0.733110340286
0.685902673844
0.640817318654
0.597735618198
0.556497484295
0.51691791309
0.478800803569
0.441956413999
0.406199402305
0.371356600418
0.337270694222
0.303802211844
0.270830198988
0.238251907998
0.205981765213
0.173949816472
0.142099788934
0.110386851664
0.0787751031779
0.0472347688679
0.0157391265503
1
1
1
1
1
1
1
1
1
1
1
1
1
1
1
1
1
1
1
1
1
1
1
1
1
0.944564402508
0.890451967307
0.837970838196
0.787332320433
0.738652435306
0.691960945574
0.647215213421
0.604316240505
0.563124918735
0.52347694127
0.485195564729
0.448107884732
0.412043756378
0.376843042297
0.342359384522
0.308462377176
0.275038464983
0.241990859816
0.209238721882
0.176715796898
0.144368645849
0.112154552445
0.080039141309
0.0479936955994
0.0159921953553
1
1
1
1
1
1
1
1
1
1
1
1
1
1
1
1
1
1
1
1
1
1
1
1
1
0.945937262032
0.893038526581
0.841594263611
0.791807808215
0.74379615784
0.697597327026
0.653182196788
0.610468531125
0.569335437404
0.52963686702
0.491213424557
0.45390749144
0.417562914701
0.382031730841
0.347177964319
0.312879918762
0.279031240561
0.245541012938
0.212333113039
0.179345012524
0.146526155616
0.113836001041
0.0812417643103
0.0487158535506
0.0162330219118
1
1
1
1
1
1
1
1
1
1
1
1
1
1
1
1
1
1
1
1
1
1
1
1
1
0.947206837745
0.895433500438
0.844954570412
0.795965892213
0.748584680323
0.702855600362
0.658760896826
0.616232730958
0.575166117409
0.535431229676
0.496884279043
0.459381582561
0.422779889525
0.386942614242
0.351743609464
0.317069524708
0.282820990905
0.248912845266
0.215273633053
0.181844545922
0.14857792993
0.115435450173
0.0823859506616
0.0494030062205
0.0164621899796
1
1
1
1
1
1
1
1
1
1
1
1
1
1
1
1
1
1
1
1
1
1
1
1
1
0.948385049137
0.897658734683
0.848081200033
0.799841159286
0.753055483155
0.707774173938
0.66398910736
0.621644929396
0.580650648366
0.54089090365
0.502236025382
0.46455505079
0.427716680045
0.391594972964
0.356073088491
0.321045661328
0.286420089199
0.252116826847
0.218069018462
0.184221546745
0.150529654514
0.116957221007
0.0834747332006
0.0500569518764
0.0166802952985
1
1
1
1
1
1
1
1
1
1
1
1
1
1
1
1
1
1
1
1
1
1
1
1
1
0.949482154918
0.89973306635
0.850999617988
0.803463715401
0.757241432231
0.7123870616
0.668900679654
0.62673779908
0.585819837163
0.546044401766
0.507294667924
0.469451353572
0.432394219199
0.396007315055
0.360182628444
0.324822445472
0.289840680283
0.255163286537
0.220727923641
0.186483120786
0.15238699478
0.118405627682
0.0845111441378
0.0506794901324
0.0168879343473
1
1
1
1
1
1
1
1
1
1
1
1
1
1
1
1
1
1
1
1
1
1
1
1
1
0.950507110785
0.90167297068
0.853732184729
0.806860125987
0.761171713012
0.716724676613
0.673526112233
0.631541063067
0.590701990873
0.550918207582
0.512084588432
0.474092646312
0.43683243046
0.400197379043
0.364087856675
0.328413507248
0.293094553704
0.2580622878
0.223258803742
0.18863622449
0.15415550543
0.119784904581
0.0854981619351
0.0512723897698
0.0170856937891
1
1
1
1
1
1
1
1
1
1
1
1
1
1
1
1
1
1
1
1
1
1
1
1
1
0.951467870896
0.903493097744
0.856298827437
0.810054148007
0.764872547546
0.720814501313
0.6778931464
0.636081931581
0.595323206852
0.555536894367
0.516628596285
0.478499816657
0.441050218689
0.404182096735
0.367803797256
0.331832017857
0.296193114478
0.260823584778
0.225669866935
0.190687617931
0.155840586975
0.121099169191
0.086438682651
0.0518373702096
0.017274143532
1
1
1
1
1
1
1
1
1
1
1
1
1
1
1
1
1
1
1
1
1
1
1
1
1
0.952371637981
0.905206711455
0.858717590171
0.813067321444
0.768367772956
0.724681613149