/*--------------------------------*- C++ -*----------------------------------*\
| =========                 |                                                 |
| \\      /  F ield         | OpenFOAM: The Open Source CFD Toolbox           |
|  \\    /   O peration     | Version:  5.x                                   |
|   \\  /    A nd           | Web:      www.OpenFOAM.org                      |
|    \\/     M anipulation  |                                                 |
\*---------------------------------------------------------------------------*/
FoamFile
{
    version     2.0;
    format      ascii;
    class       volScalarField;
    location    "946";
    object      T;
}
// * * * * * * * * * * * * * * * * * * * * * * * * * * * * * * * * * * * * * //

dimensions      [0 0 0 1 0 0 0];

internalField   nonuniform List<scalar> 
250000
(
0.0126675930528
0.012656331313
0.0126337787021
0.0125998852058
0.0125545698908
0.0124977224265
0.0124292064466
0.0123488636825
0.0122565192052
0.0121519879019
0.0120350822679
0.0119056215304
0.011763442042
0.0116084087754
0.0114404276214
0.0112594580416
0.0110655254653
0.0108587326737
0.0106392692977
0.0104074185042
0.0101635599798
0.00990816846706
0.00964180737422
0.00936511733939
0.00907879994393
0.00878359599558
0.00848026668219
0.00816956916439
0.00785222944248
0.00752892352433
0.00720026013769
0.00686676842637
0.00652889189708
0.00618698932841
0.0058413444071
0.00549218984654
0.00513943650999
0.00478284991717
0.00442222069388
0.00405738186121
0.00368822588317
0.00331472067187
0.00293692364719
0.00255499298993
0.00216919522593
0.00177990817128
0.00138761805349
0.000992909211583
0.00059644311063
0.000198930564646
0.0380253058739
0.0379915374445
0.0379239067957
0.0378222724314
0.0376863898222
0.0375159250671
0.0373104652475
0.0370695307365
0.0367925907676
0.0364790827732
0.0361284357356
0.0357400976086
0.0353135666449
0.0348484261523
0.0343443818062
0.0338013001796
0.0332192466551
0.0325985204144
0.0319396838274
0.0312435833785
0.0305113593528
0.029744441933
0.0289445321614
0.0281135673493
0.0272536713801
0.0263670887822
0.0254561257224
0.0245230762563
0.0235701387057
0.022599357551
0.0216125704144
0.0206113702144
0.0195970860322
0.0185707841034
0.0175332910244
0.0164852431915
0.0154264527504
0.014356205129
0.0132738604484
0.0121789048811
0.0110710022731
0.00995004268606
0.00881618499111
0.00766989089855
0.00651194778032
0.00534347729451
0.00416592621954
0.00298103500626
0.00179077779765
0.000597277903755
0.0634606424284
0.0634044246061
0.0632918843452
0.0631227641486
0.0628966491923
0.0626129742117
0.0622710385233
0.0618700258351
0.0614090299499
0.0608870867875
0.060303213165
0.0596564525581
0.0589459276926
0.0581708992852
0.0573308295705
0.0564254484361
0.0554548191007
0.0544193994039
0.0533200940613
0.0521582928291
0.0509358895784
0.0496552779464
0.048319320599
0.0469312911326
0.0454947890011
0.0440136261344
0.0424917237275
0.0409329831526
0.0393411415473
0.0377196690201
0.036071675868
0.0343998461062
0.0327064028269
0.0309931067657
0.0292612886429
0.02751191495
0.025744793016
0.0239587075444
0.0221525595841
0.0203254560375
0.0184767986069
0.0166063668427
0.0147143906374
0.0128016078153
0.0108693023422
0.00891931813071
0.00695404272829
0.00497635477681
0.00298953038567
0.000997124501587
0.0890467882467
0.0889683297948
0.0888112726869
0.0885752533283
0.0882596774868
0.0878637324254
0.0873864070398
0.0868265187504
0.0861827485583
0.0854536850126
0.0846378778819
0.083733902072
0.0827404318326
0.0816563245599
0.0804807125101
0.0792130995286
0.0778534585317
0.0764023240854
0.0748608732031
0.0732309866678
0.0715152830499
0.0697171183797
0.0678405463594
0.0658902370081
0.063871353742
0.0617893871305
0.059649999804
0.0574588332686
0.0552212927326
0.0529423906095
0.0506266062771
0.0482777852177
0.0458990851234
0.0434929699808
0.041061250602
0.0386051670088
0.03612460954
0.0336178344512
0.0310832437859
0.0285195189792
0.025925751294
0.0233015623136
0.0206472082172
0.0179636617873
0.0152526659028
0.0125167517599
0.00975921494961
0.00698404393055
0.0041958020179
0.00139949707631
0.114873437011
0.114773084429
0.11457220386
0.114270315021
0.113866627376
0.113360055144
0.112749241673
0.112032592179
0.111208316767
0.110274484995
0.109229093325
0.108070146582
0.106795753943
0.105404239061
0.103894262627
0.102264953999
0.10051604656
0.098648009353
0.0966621655542
0.0945607868039
0.0923471517892
0.0900255581531
0.0876012791943
0.0850804610078
0.0824699589654
0.0797771111664
0.0770095200892
0.0741747810446
0.0712801807972
0.0683324727239
0.0653376766357
0.0623009343396
0.0592264310669
0.0561173833956
0.0529760898501
0.0498040356077
0.0466012753378
0.0433655002609
0.0400945620462
0.0367866566581
0.0334405011758
0.0300554953418
0.0266318599267
0.0231707442303
0.019674294993
0.0161456789459
0.0125890524093
0.00900947542606
0.00541278013204
0.00180544584449
0.141045135639
0.140923416947
0.140679763442
0.140313563217
0.139823804406
0.139209092011
0.138467674872
0.137597482199
0.136596172312
0.135461195531
0.134189873419
0.132779496393
0.131227441126
0.129531308121
0.127689078237
0.12569928476
0.123561194912
0.121274991601
0.118841943042
0.116264545184
0.113546620175
0.110693354267
0.10771126114
0.104608062115
0.101392479665
0.0980739407806
0.0946622790089
0.0911673633301
0.0875986872544
0.0839650532212
0.0802742934136
0.076533067853
0.0727467532837
0.0689194231151
0.0650539119122
0.0611519514946
0.0572138403342
0.0532366567916
0.049217636033
0.0451544106876
0.0410452397901
0.0368892158867
0.0326864405613
0.0284381592189
0.0241468464395
0.0198162340734
0.0154512771421
0.0110580593595
0.00664365645402
0.00221602384257
0.167680010041
0.16753765904
0.167252690492
0.166824340446
0.166251342979
0.16553194733
0.164663945103
0.163644707663
0.162471237258
0.161140234785
0.15964818756
0.157991480454
0.156166533299
0.154169966364
0.151998793931
0.149650643283
0.147123992839
0.144418418791
0.14153483474
0.138475704197
0.13524520223
0.13184930129
0.128295758524
0.124593988579
0.120754813234
0.116790082274
0.11271227287
0.108533987887
0.104267400804
0.0999238158132
0.0955132812245
0.0910443096474
0.0865237230526
0.0819566223954
0.077346471548
0.0726952770716
0.0680036613285
0.0632680262287
0.0584849035125
0.0536512595512
0.0487647837625
0.0438241473643
0.0388292204605
0.0337812370639
0.0286828990884
0.023538412347
0.0183534521515
0.0131350647318
0.00789152883981
0.00263225174961
0.194908763856
0.1947467425
0.194422369657
0.193934703753
0.19328218538
0.192462652381
0.191473364087
0.190311035567
0.188971886501
0.187451708824
0.185745958027
0.183849873356
0.181758631983
0.179467541341
0.176972271967
0.174269130107
0.171355364796
0.168229498126
0.164891660234
0.161343902877
0.157590458666
0.153637908861
0.149495223377
0.145173644152
0.140686393502
0.136048197244
0.131274749156
0.126382033511
0.121385574441
0.116299821868
0.111137615646
0.105909798348
0.100625000847
0.0952895988845
0.0899078242184
0.0844820041268
0.0790131612103
0.0734969357958
0.0679290399607
0.0623056353391
0.0566236918696
0.0508813070286
0.0450779707374
0.039214764887
0.0332944890901
0.0273217073132
0.0213027157719
0.0152454417219
0.00915930034845
0.00305508538722
0.222873957356
0.222693477193
0.222332106873
0.221788697918
0.22106135319
0.220147436869
0.21904359156
0.217745764184
0.216249246424
0.214548735324
0.212638420809
0.21051210783
0.208163381248
0.20558582121
0.202773275253
0.199720190139
0.19642200107
0.192875568089
0.189079639159
0.185035307396
0.180746417697
0.176219868496
0.171465751094
0.166497275989
0.161330449804
0.155983482833
0.150476073318
0.144828487771
0.139060538089
0.133190718934
0.127235461268
0.12120859592
0.115121059152
0.108980834312
0.102793101678
0.0965605565481
0.0902846714948
0.0839602195958
0.0775819362809
0.0711449887833
0.0646454246445
0.058080564462
0.0514493228458
0.0447524476436
0.0379926707938
0.0311747676655
0.0243055278113
0.0173936486383
0.0104495786583
0.00348538254655
0.251729533871
0.251532076864
0.251136654721
0.250541880987
0.249745474536
0.248744260648
0.247534175858
0.24611027894
0.244466774986
0.242597059705
0.240493792895
0.238149011818
0.235554296539
0.232701000048
0.229580555274
0.226184868463
0.222506802596
0.218540744956
0.21428323887
0.209733641457
0.204894748612
0.199773309229
0.1943803389
0.188731146234
0.182845002555
0.176744414809
0.170454165818
0.164000053355
0.157407478982
0.15070022502
0.143899407432
0.137022732001
0.130084095092
0.123093513724
0.116057334486
0.108978648002
0.101859307751
0.0946931470817
0.0874737043355
0.0801948849732
0.0728515370951
0.0654399343752
0.0579581619601
0.0504064004197
0.0427871042242
0.0351050741623
0.0273674286283
0.019583485524
0.0117645781042
0.00392387048592
0.281640540952
0.28142788031
0.281001933919
0.280361047063
0.279502510074
0.278422546097
0.277116297613
0.275577814646
0.27380005261
0.271774888391
0.269493165914
0.266944785306
0.264118852645
0.261003909665
0.257588264029
0.253860439672
0.249809761697
0.24542707973
0.240705615608
0.235641895174
0.230236690761
0.224495865387
0.218430980936
0.21205952376
0.205404619125
0.198494153087
0.191359477925
0.184033659493
0.176549498941
0.168937778757
0.161225782509
0.153436264149
0.145586918108
0.137690316368
0.129754226183
0.121782183464
0.113775813274
0.105728329499
0.0976316783049
0.0894781090808
0.0812608912965
0.0729748953032
0.0646170487461
0.0561866683968
0.047685666811
0.0391186355858
0.0304928114688
0.0218179359
0.0131060260316
0.004371114838
0.312782984384
0.312557205286
0.31210488738
0.311424081303
0.31051161062
0.309363041371
0.307972643441
0.306333346904
0.304436701904
0.302272851773
0.29983053268
0.297097117426
0.294058725821
0.290700429137
0.287006580516
0.282961305495
0.27854918467
0.273756150953
0.268570603121
0.262984702219
0.256995766759
0.250607620746
0.243831687922
0.236687588875
0.229203005627
0.221412648641
0.213356497056
0.205077319972
0.196617848871
0.188018228562
0.17931390798
0.17053421663
0.161701683328
0.152832027078
0.143934686249
0.135013746994
0.126069219226
0.117094545889
0.10807938254
0.099013764327
0.0898888774049
0.0806977267873
0.0714356648137
0.062100771681
0.0526940881026
0.043219703864
0.033684709355
0.0240990185537
0.0144750751096
0.00482749053844
0.345343746695
0.345107266382
0.344633397046
0.34391987583
0.342963033032
0.341757738338
0.340297329773
0.338573528247
0.336576346156
0.334294000083
0.331712842221
0.328817331033
0.325590069005
0.322011944016
0.318062420084
0.313720031521
0.308963138859
0.303771000568
0.298125195011
0.292011384403
0.285421340317
0.278355048496
0.270822593396
0.262845425462
0.254456584447
0.245699543818
0.236625796858
0.227291275741
0.217752216764
0.20806139932
0.198265118501
0.188401233924
0.178498335462
0.168575871877
0.158644999365
0.148709889979
0.138769246766
0.128815480905
0.118835457794
0.108816354329
0.0987466377736
0.0886168623566
0.0784202811739
0.0681532757471
0.0578156092683
0.0474105109229
0.0369445994767
0.0264276521374
0.0158722235361
0.00529315544456
0.379520499283
0.379276085473
0.378786191189
0.378048232717
0.377058038307
0.375809766175
0.374295793889
0.372506580957
0.37043051196
0.368053729344
0.365359970377
0.36233043016
0.358943682724
0.355175705327
0.351000067054
0.346388360414
0.341310970744
0.335738286718
0.329642445617
0.322999664392
0.315793114295
0.308016140542
0.299675416076
0.290793397828
0.281409318588
0.271578032728
0.261366672778
0.25084933998
0.240100894343
0.229191311273
0.218181312768
0.207119737537
0.19604261456
0.184973612426
0.173925434175
0.162901743139
0.151899276608
0.140908511926
0.129912563989
0.118894851615
0.107840296308
0.0967362623016
0.0855732548447
0.0743453931274
0.0630506730706
0.051691032686
0.0402722298881
0.0288035363534
0.0172972455189
0.00576802744472
0.415521537782
0.415272323954
0.414772670433
0.414019680839
0.413008696536
0.411733182252
0.410184569609
0.408352058382
0.40622238029
0.40377953174
0.401004487504
0.397874915833
0.39436492806
0.390444913628
0.386081535612
0.381237992334
0.375874685598
0.369950468937
0.363424666403
0.356260029187
0.348426697599
0.339907018279
0.330700708375
0.32082940219
0.310339219091
0.299299958335
0.287800426915
0.275940310317
0.263820549012
0.251534714925
0.239162698374
0.226767280797
0.214393326787
0.202068918375
0.189807684235
0.177611687794
0.165474414197
0.153383241721
0.141316199418
0.129251747153
0.117170201564
0.105054818048
0.0928925655963
0.0806746274206
0.0683966540706
0.0560587884828
0.0436654751164
0.0312250545262
0.0187491349146
0.00625176601092
0.453565473858
0.453314969558
0.452812584499
0.452055137237
0.451037527374
0.449752586078
0.448190869329
0.446340390616
0.444186293678
0.441710466642
0.438891103793
0.435702229646
0.432113213856
0.428088327195
0.423586421224
0.418560860301
0.412959895552
0.406727743166
0.399806700221
0.392140667289
0.383680385864
0.374390445502
0.364257567297
0.35329879903
0.341567262679
0.329152592323
0.316174375708
0.302769193452
0.289075145015
0.275218422598
0.261304250884
0.24741271803
0.233598624388
0.219893987026
0.206311931935
0.192851031898
0.179499497643
0.166239924541
0.153043476561
0.139882107438
0.12673020816
0.113565810656
0.100371412551
0.0871344762606
0.0738476426883
0.0605086866591
0.0471202288334
0.0336892032146
0.020226065327
0.00674375927386
0.493880723545
0.493632817573
0.49313549886
0.492385351169
0.491376912585
0.490102490443
0.488551902891
0.486712139626
0.484566936421
0.482096257051
0.479275679026
0.476075686069
0.472460882926
0.468389170676
0.46381095861
0.458668549252
0.452895924332
0.446419287675
0.439158881925
0.431032759135
0.421963265072
0.411886819684
0.400766869253
0.388608376384
0.375469957935
0.361467815706
0.346766619529
0.331557730975
0.316033221385
0.300364615044
0.284690194464
0.269110686426
0.253690981784
0.238465242052
0.223443328594
0.208617249857
0.193966948135
0.179467836854
0.165081910513
0.150772687407
0.136507037172
0.122256457125
0.10799789792
0.0937142148788
0.0793942999126
0.0650329290756
0.0506303427727
0.0361915550367
0.0217253701911
0.00724311776387
0.536704742931
0.53646369716
0.535980001732
0.535250080727
0.534268229654
0.533026397281
0.531513878355
0.52971690472
0.527618121887
0.525195934264
0.522423701371
0.51926876925
0.51569132883
0.511643110779
0.50706596248
0.501890419595
0.496034500902
0.48940314463
0.481888990524
0.473375595162
0.463744575872
0.452888366967
0.44072969638
0.427246672582
0.412497752174
0.39663486819
0.379891447365
0.362543168919
0.344862117724
0.327082814863
0.309385517002
0.291893770788
0.274680533682
0.257777977991
0.241187864874
0.224890906023
0.208854531826
0.19304368064
0.177408303
0.161901168842
0.146479771387
0.131107588175
0.115754831391
0.100398785542
0.085023801383
0.0696209880392
0.0541876213423
0.038726260863
0.0232435462953
0.00774867592585
0.582282977075
0.582053408762
0.581592617562
0.580896968428
0.579960673093
0.578775544899
0.577330650865
0.57561184309
0.573601147959
0.5712759841
0.568608173605
0.565562705404
0.562096206835
0.558155084117
0.553673313543
0.548569919479
0.542746292465
0.53608372999
0.528441996986
0.519660389236
0.509563781989
0.497977278408
0.484753551782
0.469814827594
0.453203379462
0.435118588781
0.41590470711
0.39597304414
0.375716618247
0.355456468484
0.335423173937
0.315761640171
0.296546508844
0.277799944071
0.259507752526
0.241632447633
0.2241232085
0.206930167233
0.189987839803
0.173235615302
0.156619554307
0.140093508665
0.123619692455
0.107168819591
0.0907198896774
0.0742596686645
0.0577818806143
0.0412860968422
0.0247762837241
0.00825900235361
0.630867507581
0.630654358443
0.6302264137
0.629580103733
0.628709753124
0.627607318489
0.626262014133
0.624659802536
0.622782719648
0.620607993183
0.618106899044
0.615243285076
0.611971673016
0.608234831078
0.603960697844
0.599058548694
0.593414363687
0.586885551306
0.579295641611
0.570430519957
0.560039568024
0.547847995659
0.533590252252
0.51707574019
0.498288404153
0.477486296269
0.45520685183
0.43209123992
0.408717493822
0.385521019199
0.362785317341
0.340666540071
0.319226743806
0.298464123651
0.278336653217
0.258779199716
0.239715371449
0.221074994049
0.202773550705
0.18473425103
0.166889569932
0.149182094791
0.131564787914
0.114000817167
0.0964630513742
0.0789332673599
0.061401078382
0.0438625602212
0.0263185242879
0.00877241938217
0.682715407757
0.682523898852
0.682139311496
0.681558286224
0.680775489133
0.679783346312
0.678571663466
0.677127103648
0.675432486083
0.673465853398
0.671199234823
0.668597005672
0.66561370627
0.66219113403
0.658254459778
0.653707048739
0.648423609894
0.642241319225
0.63494882824
0.626273963418
0.615873255885
0.603331648744
0.588190592979
0.570036583043
0.548686251546
0.524448107204
0.49823663804
0.471105144995
0.443912081174
0.417229142508
0.391376935687
0.366495059531
0.342605848644
0.319661431586
0.297575395755
0.27624307068
0.255553985548
0.235410464386
0.215706291012
0.196345675941
0.177245380583
0.158335178938
0.139557636736
0.120867504243
0.102230830382
0.0836238328616
0.0650315186598
0.0464460155913
0.0278645491293
0.00928703222289
0.73808683912
0.737922413332
0.737592140858
0.737093032361
0.736420346552
0.735567338323
0.73452489829
0.733281054435
0.731820294979
0.73012265371
0.728162474226
0.725906732826
0.723312745152
0.720325000208
0.716870743827
0.712853754836
0.708145503619
0.702572553953
0.695898742182
0.687800673134
0.677836513012
0.665413846076
0.649779409078
0.630094251972
0.605727511774
0.576915565928
0.545434635445
0.513112420519
0.481204169003
0.450398293288
0.420991496503
0.393047530598
0.36650371674
0.34123477209
0.317089191866
0.293909522008
0.271543612477
0.2498538723
0.228715367356
0.208009620803
0.187635691598
0.167509262171
0.147561603296
0.127738376675
0.10799828094
0.088311529991
0.0686581294321
0.0490258901032
0.0294080944212
0.00980076724891
0.797242962305
0.797111211395
0.796846510265
0.796446404152
0.79590700415
0.795222765871
0.794386178715
0.793387334041
0.79221333203
0.790847470009
0.789268128918
0.787447233814
0.785348100258
0.78292237608
0.780105621341
0.776810793317
0.772918441164
0.768261637264
0.762602385887
0.755594204632
0.746723144905
0.735218929935
0.719939888743
0.6992987239
0.671519884739
0.63606823805
0.597115655147
0.557944149399
0.520236017204
0.484638530178
0.451272120544
0.420019368655
0.390667840385
0.362976845303
0.336707771578
0.311637469855
0.287563824269
0.264307758705
0.24171990766
0.219658355289
0.198003597896
0.176656574109
0.155536781642
0.134580426423
0.113738552786
0.0929750984037
0.072264806938
0.0515909125817
0.0309424920319
0.0103114183804
0.860443728659
0.860350307433
0.860162565179
0.859878736132
0.859496036444
0.859010480429
0.858416653237
0.857707389948
0.856873329002
0.855902294428
0.854778438445
0.853481039687
0.851982793328
0.850247331073
0.848225539352
0.845849941894
0.843025857119
0.839616980434
0.835420985867
0.830126135214
0.823231149032
0.813892457959
0.800630720432
0.780805816141
0.749987908561
0.703309018409
0.653077614347
0.604849155313
0.560211322227
0.519271104139
0.481680785749
0.446993434054
0.414775008398
0.384634998421
0.356231116947
0.329266397963
0.303484585638
0.278665505412
0.254632023577
0.231218946899
0.208288334353
0.1857264633
0.163441106358
0.141359026287
0.119423588034
0.0975923897586
0.0758348138572
0.0541293877031
0.0324608299476
0.0108166998519
0.927945518609
0.927896186842
0.927796728753
0.927646358117
0.9274436182
0.92718639299
0.926871800175
0.926496021113
0.926054056299
0.92553938468
0.924943487781
0.924255177247
0.92345962804
0.922536957566
0.921460079819
0.920191355672
0.918677152399
0.916838557796
0.914555179355
0.911633127157
0.907738260391
0.902243459682
0.893836020209
0.879385927631
0.850288429663
0.779358848615
0.711502819237
0.651942540855
0.599696461774
0.553281317463
0.511503092309
0.473457698362
0.438449007252
0.405925727409
0.375440605352
0.346624442618
0.319169085127
0.29281579321
0.26736042484
0.242616017174
0.218427388174
0.194667034646
0.171231630993
0.148038928869
0.125024896229
0.102140958227
0.0793512132549
0.0566294929791
0.0339561253745
0.0113143030506
1
1
1
1
1
1
1
1
1
1
1
1
1
1
1
1
1
1
1
1
1
1
1
1
1
0.858209117511
0.766352450466
0.695591746883
0.63659751243
0.585406860884
0.539929630237
0.498862571016
0.461298474032
0.426559488915
0.39411542511
0.363539164784
0.334480191042
0.306647740223
0.279814404149
0.253774771629
0.228358803261
0.203426915021
0.17886588998
0.154585319253
0.130514363684
0.106598672673
0.0827973159823
0.0590795837568
0.0354215020836
0.0118019546868
1
1
1
1
1
1
1
1
1
1
1
1
1
1
1
1
1
1
1
1
1
1
1
1
1
0.892835189096
0.804376156193
0.731132957625
0.668804721854
0.614489596494
0.566236488382
0.522716103783
0.482969841901
0.446271850354
0.41205185901
0.379850047954
0.349289232782
0.320056784003
0.291908030565
0.264624082916
0.238023492055
0.211957011015
0.186303246916
0.160964852264
0.135865047751
0.110944315434
0.086157117161
0.0614684902403
0.0368503629292
0.0122774733589
1
1
1
1
1
1
1
1
1
1
1
1
1
1
1
1
1
1
1
1
1
1
1
1
1
0.910983743878
0.830017802831
0.758634324258
0.695774047812
0.639989369808
0.58998673625
0.54467715268
0.503196235103
0.46485163914
0.429080634154
0.395419790884
0.363483766786
0.33295017603
0.303564008462
0.275099302299
0.247367342952
0.220212115651
0.193506130366
0.167146604953
0.141051906972
0.115158133101
0.0894156978293
0.0637857908878
0.0382365486944
0.0127388216529
1
1
1
1
1
1
1
1
1
1
1
1
1
1
1
1
1
1
1
1
1
1
1
1
1
0.921977095255
0.847863375609
0.779746861832
0.717929522956
0.661924420549
0.611053835683
0.56458394838
0.521819356621
0.48215639525
0.445077718382
0.410141922645
0.37697308095
0.34525150994
0.314716636835
0.28514446636
0.256342925634
0.228152237569
0.200441071246
0.173102884064
0.146052424333
0.119222309008
0.0925595707561
0.0660220484377
0.0395744754817
0.0131841512555
1
1
1
1
1
1
1
1
1
1
1
1
1
1
1
1
1
1
1
1
1
1
1
1
1
0.929375215464
0.860825671649
0.79613588721
0.736046182543
0.68061202463
0.629535170124
0.5824270883
0.538783215354
0.498113040797
0.459966979642
0.423943620545
0.389690259713
0.356900744649
0.325313043685
0.294713644714
0.264910671624
0.235743571998
0.207079483217
0.178809845281
0.150847091953
0.123121334555
0.0955769543772
0.068168997968
0.040859244617
0.0136118391232
1
1
1
1
1
1
1
1
1
1
1
1
1
1
1
1
1
1
1
1
1
1
1
1
1
0.934728318946
0.870618708445
0.809079920553
0.750924497649
0.696460021191
0.645654475697
0.598301612002
0.554111784401
0.512708002328
0.473716233611
0.436784491112
0.401591860946
0.367852016581
0.335313567849
0.303771677898
0.273039571681
0.242959098646
0.213398161091
0.184247901466
0.155419739064
0.126842265684
0.0984579649959
0.0702196803591
0.0420867212486
0.0140205134583
1
1
1
1
1
1
1
1
1
1
1
1
1
1
1
1
1
1
1
1
1
1
1
1
1
0.938798870458
0.878259629924
0.81948673578
0.763238380577
0.70991899202
0.659650247351
0.612359597115
0.567882263712
0.525972581079
0.486329521165
0.448653073278
0.412658435165
0.378083795585
0.344693984748
0.31229478098
0.28070746669
0.249778814206
0.219379493546
0.189401914699
0.159757698367
0.13037486035
0.101194723935
0.0721685187722
0.0432535801977
0.0144090690067
1
1
1
1
1
1
1
1
1
1
1
1
1
1
1
1
1
1
1
1
1
1
1
1
1
0.942003160132
0.884373773491
0.827988709348
0.773517803128
0.721385269655
0.671791660648
0.624762689066
0.580201716325
0.537968218122
0.497837965438
0.459561044943
0.422889747091
0.387589072378
0.353442948144
0.320269674462
0.287900678526
0.256189564662
0.225011395434
0.194261181476
0.163851817987
0.133711601677
0.103781382535
0.0740113398081
0.0443573199022
0.0147766719318
1
1
1
1
1
1
1
1
1
1
1
1
1
1
1
1
1
1
1
1
1
1
1
1
1
0.944588648471
0.88936231835
0.83502913129
0.782169672847
0.731192534559
0.682332665766
0.635675336513
0.591190060659
0.548774365712
0.50829121221
0.469537296242
0.432300701314
0.396373567718
0.361560120703
0.327692372685
0.294613260091
0.262184574971
0.230287008302
0.198819240526
0.167696338133
0.136847619483
0.106214073263
0.075745344491
0.0453962472619
0.0151227551523
1
1
1
1
1
1
1
1
1
1
1
1
1
1
1
1
1
1
1
1
1
1
1
1
1
0.946712750478
0.893493623356
0.840924045675
0.789504819144
0.739614421616
0.691496973648
0.645271620489
0.600953702479
0.558480107183
0.517750274843
0.47862256152
0.440917507825
0.404453228939
0.369054264771
0.334566809437
0.300846034623
0.267762780438
0.235204232747
0.203073543938
0.171288659502
0.139780528328
0.108490799052
0.0773690367941
0.0463694376597
0.0154470055117
1
1
1
1
1
1
1
1
1
1
1
1
1
1
1
1
1
1
1
1
1
1
1
1
1
0.948481152568
0.896954151378
0.845903512636
0.795761754122
0.74687282199
0.699476214596
0.653708093843
0.609613654553
0.567165141136
0.526281293546
0.486864834937
0.448774261775
0.411851720432
0.375941342179
0.340903411209
0.306605537791
0.272928046928
0.23976515426
0.20702503455
0.174629033361
0.142510202946
0.110611275094
0.0788821189074
0.047276675325
0.015749344444
1
1
1
1
1
1
1
1
1
1
1
1
1
1
1
1
1
1
1
1
1
1
1
1
1
0.949967956375
0.899877848755
0.850138639051
0.801125255725
0.753147358567
0.706432693872
0.661123717811
0.617284107795
0.574911188274
0.533950741003
0.494316012559
0.455910164599
0.418598186538
0.382242745827
0.346717713576
0.311902946967
0.277688349019
0.243975415777
0.210677669289
0.177720202392
0.145038511986
0.112576737756
0.0802853628956
0.0481183795132
0.0160299039068
1
1
1
1
1
1
1
1
1
1
1
1
1
1
1
1
1
1
1
1
1
1
1
1
1
0.951226999333
0.902363778961
0.853759330149
0.805740180175
0.758583924264
0.712503261496
0.667640334445
0.624069470515
0.581805592687
0.54081559811
0.501030562506
0.462367420531
0.424725352509
0.387983741201
0.352029086618
0.316753056913
0.282054957738
0.247843579525
0.214037922117
0.180567018078
0.147369029277
0.114389734361
0.0815804679746
0.0488955217981
0.0162889993089
1
1
1
1
1
1
1
1
1
1
1
1
1
1
1
1
1
1
1
1
1
1
1
1
1
0.952298551659
0.90448705899
0.856866133751
0.809721527525
0.763301722588
0.717803233436
0.673363949986
0.630063507517
0.587928836436
0.546942846553
0.507054482804
0.468188918567
0.430267837783
0.39319218031
0.356859600461
0.321173336587
0.286041673404
0.251380510169
0.217114293311
0.183176055951
0.149506738981
0.116053905889
0.082769911605
0.0496095392434
0.0165271009956
1
1
1
1
1
1
1
1
1
1
1
1
1
1
1
1
1
1
1
1
1
1
1
1
1
0.953213489946
0.906305888061
0.859538223191
0.813161733011
0.76739885604
0.722429975019
0.678386497055
0.635349768931
0.593354596251
0.552395811321
0.512436414714
0.473416070707
0.435260883619
0.39789732202
0.361232988847
0.32518307899
0.28966412729
0.25459880251
0.219916845134
0.185555245176
0.151457747656
0.117573772373
0.0838568012118
0.050262247453
0.0167448056093
1
1
1
1
1
1
1
1
1
1
1
1
1
1
1
1
1
1
1
1
1
1
1
1
1
0.953995983254
0.90786620851
0.861838919412
0.816135973521
0.770956684807
0.726465986664
0.682787660874
0.640002393778
0.598149868891
0.55723370735
0.517228053325
0.47808474155
0.439740201191
0.402127536599
0.365173628146
0.3288026709
0.292939175909
0.257512271147
0.22245677793
0.187713524171
0.153229012798
0.118954528416
0.0848447317902
0.0508557566432
0.0169428083727
1
1
1
1
1
1
1
1
1
1
1
1
1
1
1
1
1
1
1
1
1
1
1
1
1
0.954665287695
0.909204876886
0.863819567136
0.818706058018
0.774043201956
0.729981472223
0.686636571574
0.644087003609
0.60237518153
0.561511123463
0.521477784922
0.482237122919
0.443736183543
0.405912807692
0.368706550086
0.332053155416
0.29588441915
0.260135511845
0.224746053854
0.189660529107
0.154828094005
0.120201853889
0.0857376531342
0.0513923930116
0.0171218770567
1
1
1
1
1
1
1
1
1
1
1
1
1
1
1
1
1
1
1
1
1
1
1
1
1
0.955236978025
0.910351882279
0.865522270261
0.820923284456
0.776715622004
0.733036437229
0.689993300207
0.647661607831
0.606084983059
0.565278017489
0.525230593969
0.485912992944
0.447281135491
0.409281480369
0.371856570547
0.334955712943
0.298517762833
0.262483517694
0.226797066511
0.191406317615
0.156262930019
0.12132174285
0.0865397490583
0.051874626894
0.0172828281425
1
1
1
1
1
1
1
1
1
1
1
1
1
1
1
1
1
1
1
1
1
1
1
1
1
0.955723795085
0.911331857702
0.866982011529
0.822830624605
0.779022423444
0.73568236362
0.692910127241
0.650777460697
0.609328114865
0.56857989109
0.528528099266
0.489149881074
0.45040870674
0.412258689691
0.374648348136
0.33753129738
0.300857049662
0.264571350173
0.228622356122
0.192961128531
0.157541643055
0.122320352201
0.0872553298842
0.0523050085393
0.0174265054659
1
1
1
1
1
1
1
1
1
1
1
1
1
1
1
1
1
1
1
1
1
1
1
1
1
0.956136315962
0.912165356506
0.868227987517
0.824464322897
0.781004920534
0.737963643895
0.695432658267
0.653479816194
0.612148275266
0.571457993649
0.531408533128
0.491982678703
0.453150331435
0.414872273822
0.37710358039
0.339800058551
0.30291972007
0.26641386224
0.230234370038
0.194335177757
0.158672371109
0.123203871082
0.0878887391106
0.0526861120842
0.0175537615144
1
1
1
1
1
1
1
1
1
1
1
1
1
1
1
1
1
1
1
1
1
1
1
1
1
0.95648333886
0.912869537041
0.869284829197
0.825855137016
0.782698465969
0.739918632054
0.697600739735
0.655808670325
0.614584504231
0.573949585319
0.533906796538
0.494443576936
0.455535276605
0.417148435739
0.379243768607
0.341781641794
0.304722669135
0.268025499802
0.23164527456
0.195538492949
0.159663128609
0.1239784098
0.0884442726709
0.053020486582
0.0176654410362
1
1
1
1
1
1
1
1
1
1
1
1
1
1
1
1
1
1
1
1
1
1
1
1
1
0.956772270744
0.913458886047
0.870173392725
0.827029282143
0.784133421625
0.741580545281
0.699449186298
0.657799307573
0.61667159979
0.576088221117
0.536054629667
0.496562114964
0.45759065638
0.419111778681
0.381091178895
0.343493587958
0.306281898443
0.269420100144
0.232866786464
0.196580765071
0.16052168087
0.124649900256
0.0889261070374
0.0533106126408
0.0177623665859
1
1
1
1
1
1
1
1
1
1
1
1
1
1
1
1
1
1
1
1
1
1
1
1
1
0.957009356735
0.913945660328
0.870911407893
0.82800916907
0.785335913285
0.742978177349
0.701008421083
0.659482818387
0.618440484968
0.577903969715
0.537880724333
0.49836521722
0.459341365119
0.42078499918
0.382666154683
0.344953312715
0.307612745077
0.270610827006
0.2339100629
0.197471239782
0.161255448251
0.12522401776
0.0893382416589
0.0535588672046
0.0178453265366
1
1
1
1
1
1
1
1
1
1
1
1
1
1
1
1
1
1
1
1
1
1
1
1
1
0.957199876154
0.914340252809
0.871513970964
0.828813977552
0.786328433268
0.74413648126
0.702304993911
0.660886532396
0.619918542102
0.579423652917
0.539410849781
0.499877229435
0.460810059294
0.422188891224