/*--------------------------------*- C++ -*----------------------------------*\
| =========                 |                                                 |
| \\      /  F ield         | OpenFOAM: The Open Source CFD Toolbox           |
|  \\    /   O peration     | Version:  5.x                                   |
|   \\  /    A nd           | Web:      www.OpenFOAM.org                      |
|    \\/     M anipulation  |                                                 |
\*---------------------------------------------------------------------------*/
FoamFile
{
    version     2.0;
    format      ascii;
    class       volScalarField;
    location    "1004";
    object      T;
}
// * * * * * * * * * * * * * * * * * * * * * * * * * * * * * * * * * * * * * //

dimensions      [0 0 0 1 0 0 0];

internalField   nonuniform List<scalar> 
250000
(
0.017448002585
0.0174371190012
0.017415252815
0.0173822089664
0.0173376960871
0.0172813293745
0.0172126346868
0.0171310540932
0.0170359531712
0.0169266303723
0.0168023287617
0.0166622504045
0.0165055735933
0.0163314729921
0.0161391426063
0.0159278212623
0.0156968200264
0.0154455506954
0.015173554209
0.0148805275703
0.0145663476826
0.0142310904464
0.0138750435488
0.0134987116474
0.0131028130876
0.0126882666128
0.0122561739448
0.0118077901443
0.0113444895162
0.0108677288716
0.0103790086954
0.00987983505012
0.0093716842816
0.00885597239753
0.0083340310444
0.00780707138727
0.00727611653858
0.00674207049409
0.00620571351968
0.00566770302145
0.00512857851882
0.00458876964771
0.00404860627301
0.00350832990763
0.00296810574134
0.00242803467031
0.00188816478258
0.0013485017721
0.000809017521412
0.000269657647044
0.0523657750597
0.0523332183025
0.0522678057376
0.0521689517181
0.0520357792447
0.0518671297225
0.0516615750669
0.0514174340584
0.0511327939184
0.0508055380957
0.0504333812175
0.0500139120494
0.049544645098
0.0490230811325
0.0484467763978
0.0478134196217
0.0471209151226
0.0463674694277
0.0455516779096
0.0446726071344
0.0437298680261
0.0427236747246
0.041654884265
0.0405250130053
0.0393362270845
0.0380913024003
0.036793570676
0.0354468300444
0.0340552399476
0.0326232090289
0.0311552763975
0.0296559952787
0.0281298252765
0.0265810385892
0.0250136445631
0.0234312985993
0.0218370849969
0.0202337225989
0.0186235533523
0.0170085462385
0.0153903132122
0.0137701340718
0.0121489875217
0.0105275860123
0.00890641225353
0.00728575555722
0.00566574637316
0.00404638750802
0.00242758043844
0.000809147203415
0.0873502122465
0.0872962660894
0.0871878804377
0.0870240703129
0.0868033644601
0.0865238184337
0.0861830336517
0.0857781836207
0.0853060488574
0.084763062158
0.0841453658998
0.0834488829181
0.0826694021717
0.0818026798345
0.0808445556034
0.079791082886
0.0786386701457
0.0773842291106
0.0760253239253
0.0745603138285
0.0729884808041
0.0713101331439
0.0695266761939
0.0676406428953
0.0656556790798
0.0635764760528
0.0614086763843
0.0591587209889
0.0568336662734
0.054440990036
0.051988386038
0.0494835631456
0.046934059788
0.04434708257
0.0417293756308
0.039087098665
0.0364254366213
0.0337489437195
0.0310615281238
0.0283664621009
0.025666411803
0.0229634815252
0.0202592678507
0.0175549196301
0.0148512002526
0.012148549129
0.00944713973874
0.00674693201519
0.00404771752146
0.0013491600817
0.122448424873
0.122373583331
0.122223204982
0.121995899515
0.121689588163
0.121301521012
0.120828301869
0.120265922862
0.119609811023
0.118854889306
0.117995654635
0.117026275409
0.115940710516
0.114732851106
0.113396685248
0.111926483942
0.110317004931
0.108563708397
0.106662976064
0.10461232284
0.102410588175
0.100058093289
0.097556750701
0.0949101143223
0.0921233619002
0.0892031988192
0.0861577184754
0.0829961775879
0.0797287246594
0.0763661118817
0.072919391007
0.0693996170962
0.0658175761653
0.06218354934
0.0585071221228
0.0547970545408
0.0510606990594
0.0473044799513
0.0435338794895
0.039753459754
0.0359669109756
0.0321771192767
0.0283862473626
0.0245958224145
0.020806826187
0.0170197830632
0.0132348426226
0.0094518542751
0.00567043336169
0.00189002467446
0.157709071443
0.157614041256
0.157423079099
0.157134378304
0.156745234934
0.156252067585
0.15565044617
0.154935132629
0.154100136598
0.153138789526
0.152043840895
0.150807580194
0.149421987848
0.147878917437
0.14617031007
0.144288439646
0.142226185001
0.139977321536
0.13753682125
0.134901146355
0.132068518534
0.129039143907
0.125815373704
0.122401782889
0.118805153907
0.115034350033
0.111100122773
0.107014802556
0.102791921771
0.0984458141342
0.0939911934761
0.0894427457252
0.084814756697
0.0801207925641
0.0753734421779
0.0705841879779
0.0657626546138
0.0609171824643
0.056054835878
0.0511814450423
0.0463016792974
0.0414191439928
0.0365364925405
0.0316555461128
0.0267774145418
0.0219026131629
0.0170311717023
0.0121627330722
0.0072966430294
0.00243204012589
0.193181633317
0.193067346143
0.192837657672
0.192490332301
0.192022020251
0.191428277888
0.190703597812
0.189841452494
0.188834355455
0.187673944617
0.186351092897
0.184856051204
0.183178628754
0.181308414639
0.179235042959
0.176948501204
0.174439478012
0.171699741862
0.168722536995
0.165502977343
0.162038414179
0.158328749659
0.154376667413
0.150187753812
0.145770490049
0.141136093387
0.136298260956
0.131272757071
0.126076906343
0.120729053312
0.115247997489
0.10965245032
0.103960545407
0.0981894250346
0.0923549172444
0.0864713195647
0.0805507248969
0.0746034283992
0.068638077364
0.062661734556
0.056679983324
0.0506970607812
0.0447160075608
0.038738824483
0.0327666282698
0.0267998002709
0.0208381242157
0.0148809115634
0.00892711710348
0.00297545705904
0.228915693131
0.228783314998
0.228517226126
0.228114748933
0.227571866077
0.226883238745
0.226042234664
0.2250409705
0.223870373707
0.222520269834
0.220979502016
0.219236089849
0.217277434787
0.215090578473
0.212662518634
0.20998058425
0.20703286724
0.203808701952
0.200299176493
0.196497651764
0.192400256219
0.188006318044
0.183318693581
0.178343952943
0.173092392096
0.167577840918
0.161817328684
0.155830541239
0.149639148785
0.143266086657
0.136734808747
0.130068576985
0.123289829628
0.116419658094
0.109477408127
0.102480407981
0.0954433474579
0.0883785346908
0.081296192693
0.0742045608816
0.0671100440812
0.0600173921016
0.0529298955084
0.0458495858679
0.0387774313653
0.031713521276
0.0246572355676
0.0176073991274
0.0105624247463
0.00352045894293
0.264960197789
0.264811137817
0.264511461242
0.264058036631
0.263446158829
0.262669562037
0.261720441512
0.260589489441
0.259265951211
0.257737709609
0.25599140568
0.254012605926
0.251786025989
0.249295820657
0.246525948461
0.243460616063
0.240084802387
0.236384854966
0.232349141101
0.22796872476
0.223238027906
0.218155424185
0.212723706373
0.206950369639
0.200847662807
0.194432363616
0.187725345838
0.180750867962
0.173535684604
0.166108092272
0.158496947751
0.150730745632
0.142836812818
0.134840657387
0.126765488268
0.118631903774
0.110457337721
0.102256154273
0.0940401211548
0.0858185661313
0.0775985851736
0.0693852813216
0.0611820168697
0.0529906652462
0.044811852548
0.0366451820969
0.0284894388745
0.0203427743536
0.0122028769921
0.00406714340481
0.301362710073
0.30119862777
0.300868678555
0.300369268593
0.299694989315
0.298838621513
0.297791145631
0.296541764631
0.295077946828
0.293385497867
0.29144867281
0.289250341011
0.286772217746
0.283995177029
0.28089965924
0.277466184314
0.273675975599
0.269511690465
0.264958240751
0.260003669739
0.254640033654
0.248864217654
0.242678603119
0.236091499822
0.229117267919
0.221776064167
0.214093283225
0.206098622482
0.197824902692
0.189306797675
0.180579542264
0.171677737519
0.162634330951
0.153479817465
0.144241675762
0.134944030081
0.125607206712
0.116247640371
0.106878571747
0.0975102806857
0.0881503728032
0.0788040935583
0.0694746493298
0.0601635202407
0.0508707542135
0.0415952359837
0.0323349288615
0.0230870908789
0.0138484714551
0.00461550395149
0.338168651195
0.337991461327
0.337635067934
0.337095412052
0.336366374555
0.335439766965
0.334305324396
0.332950707728
0.331361523458
0.329521371987
0.327411937722
0.325013137064
0.322303342839
0.319259705641
0.315858593039
0.312076165842
0.307889105231
0.303275494393
0.298215841992
0.29269421224
0.286699398451
0.280226047329
0.273275616227
0.265857033825
0.257986945111
0.249689439238
0.240995327284
0.231940901927
0.222566357175
0.212914083537
0.203026958644
0.192946798661
0.18271307427
0.172361944177
0.161925613651
0.151431991949
0.140904420293
0.130361367748
0.119817413299
0.109283584774
0.0987677481673
0.0882750160876
0.0778081520714
0.0673679544931
0.0569536097983
0.0465630098132
0.0361930323207
0.0258397878709
0.0154988397486
0.00516541259661
0.375420537555
0.375232411543
0.374853920056
0.37428054497
0.373505462326
0.372519515128
0.371311182332
0.369866551556
0.368169304694
0.366200728603
0.363939766505
0.361363129758
0.358445493831
0.355159806291
0.351477737537
0.347370305464
0.34280870164
0.337765336298
0.33221510037
0.326136812877
0.319514781431
0.312340356008
0.304613310468
0.296342856716
0.287548100329
0.278257774601
0.268509302564
0.258347129495
0.24782057525
0.236981519029
0.225882119967
0.214572805795
0.203100665759
0.191508303053
0.179833135672
0.168107090493
0.156356584749
0.144602001725
0.132859031361
0.121139152439
0.109450154278
0.0977966617752
0.0861806386043
0.0746018524306
0.0630582932559
0.051546541612
0.0400620878702
0.0285996073468
0.0171531990683
0.00571660390095
0.413157217623
0.412960580129
0.41256484899
0.411965064706
0.411153721926
0.410120719314
0.408853297577
0.407335973109
0.405550476715
0.403475710382
0.401087739599
0.398359844176
0.395262656936
0.391764426554
0.387831447399
0.383428703961
0.378520777732
0.37307305677
0.367053268011
0.360433315268
0.353191348898
0.345313918702
0.336797980671
0.327652463427
0.317899083801
0.307572139398
0.296717282148
0.285389235509
0.273648821189
0.261559767437
0.249185639994
0.23658722464
0.223820533985
0.210935482129
0.197975175728
0.184975715895
0.171966544284
0.158969708593
0.146001651143
0.133073880887
0.120193662334
0.107364681606
0.0945876643206
0.0818609312334
0.0691808858057
0.0565424337223
0.0439393386286
0.0313645210513
0.018810309653
0.00626866100258
0.451413117852
0.451210637106
0.45080301935
0.450184896537
0.449348128146
0.448281723398
0.446971741319
0.445401175463
0.443549832167
0.441394215226
0.438907435274
0.436059169268
0.43281570442
0.429140111649
0.424992605494
0.420331158875
0.415112449053
0.409293210595
0.40283205467
0.395691772429
0.387842064791
0.379262528571
0.36994558989
0.359898943199
0.349146986107
0.337730778996
0.325706428406
0.313141889321
0.30011275359
0.286697770816
0.272974672497
0.259016765934
0.244890501121
0.230654009352
0.216356481508
0.2020381959
0.187731380126
0.173459306336
0.159238631344
0.145080313444
0.130990507367
0.116971396216
0.103021938071
0.089138518269
0.0753155070184
0.061545727428
0.0478208423773
0.0341316702072
0.0204684401214
0.00682100430162
0.490217510187
0.490012080528
0.489598390366
0.488970714042
0.488120349845
0.487035510459
0.485701178779
0.484098934343
0.482206757627
0.479998823529
0.477445301458
0.474512187939
0.471161209299
0.467349847132
0.463031558032
0.4581562803
0.452671341144
0.446522891943
0.439657995714
0.432027453771
0.423589368047
0.414313274778
0.404184455135
0.393207769149
0.381410169996
0.368841055492
0.355570120075
0.341682746115
0.327273871234
0.312441573237
0.297281330514
0.281881610714
0.266320985902
0.250666655461
0.234974091897
0.219287482383
0.203641308955
0.188059363062
0.172557741894
0.157146071603
0.141828648918
0.126605461165
0.111473070788
0.0964253650465
0.0814541793204
0.0665498062617
0.0517014046919
0.0368973219753
0.0221253429529
0.00737288354645
0.529593817752
0.529388532913
0.528974993556
0.528347188082
0.527495959676
0.526408862113
0.525069966529
0.52345962188
0.521554173247
0.51932564589
0.516741409032
0.513763842713
0.510350044859
0.506451635324
0.502014740381
0.49698027522
0.491284681977
0.484861320448
0.477642734567
0.46956400516
0.460567310855
0.45060760935
0.439658989528
0.42772075942
0.414821875968
0.401022161416
0.386409434382
0.371092629454
0.355192567934
0.338832561745
0.322130462922
0.305193030667
0.288112697213
0.270966346216
0.253815542694
0.236707672351
0.219678491796
0.202751263237
0.185940449968
0.169253321123
0.152691379991
0.136251586285
0.119927378217
0.10370951157
0.087586736894
0.071546336419
0.0555745412425
0.0396568468561
0.0237782425653
0.00792337412325
0.569558979248
0.569357095132
0.568950265179
0.568332286046
0.567493687183
0.566421551019
0.565099268425
0.563506228574
0.561617442666
0.559403103671
0.556828089321
0.5538514246
0.550425734554
0.54649674114
0.542002892018
0.536875257976
0.531037900753
0.524408992085
0.516903045007
0.50843466845
0.498924215031
0.488305464846
0.476534966497
0.463601794074
0.449535446828
0.434408953425
0.418335056728
0.401455479447
0.383926482006
0.365904773653
0.347536477757
0.328950171951
0.310253671261
0.291533608255
0.272856778698
0.25427239075
0.235815783775
0.217508278987
0.199361253605
0.181378308933
0.163557016128
0.145890335417
0.128367758778
0.11097621745
0.0937007914218
0.0765252535069
0.0594324758447
0.0424047214147
0.0254238384899
0.00847137835997
0.610122896232
0.609927782342
0.609534458826
0.60893664787
0.608124743131
0.60708559594
0.605802220782
0.604253414624
0.602413283281
0.60025066865
0.597728473521
0.594802887272
0.59142252865
0.587527544821
0.583048744402
0.577906903726
0.572012478571
0.565266084691
0.557560276981
0.548783331131
0.538825833595
0.527590750847
0.51500701464
0.501045248332
0.485732084387
0.469157450819
0.451469662604
0.432857706302
0.413527583095
0.393680709353
0.373498764943
0.353135707269
0.332715495604
0.312333490327
0.292059767819
0.271943140601
0.252015470163
0.232294705511
0.212787121779
0.193491021668
0.174398705661
0.155498038467
0.136773670784
0.118207977794
0.0997817678272
0.0814748050089
0.0632661807317
0.0451345605199
0.0270583259852
0.00901563259669
0.651287990147
0.651103069418
0.650730166858
0.65016306939
0.649392248123
0.648404615359
0.647183186067
0.645706633055
0.643948721516
0.641877606217
0.639454973616
0.636635012941
0.633363207566
0.62957495555
0.625194063652
0.620131224986
0.614282704655
0.607529643885
0.599738674138
0.590764911182
0.58045881015
0.568678584595
0.555309425382
0.5402887811
0.523632742621
0.505452874536
0.485950692905
0.465386189584
0.444037000608
0.422164761829
0.399995094387
0.377710010564
0.35544859321
0.33331196335
0.311369772233
0.289666660331
0.268227973414
0.247065154691
0.226177127021
0.205555032418
0.185184410685
0.165046851938
0.145121234939
0.125384642159
0.10581302268
0.0863816570757
0.0670654647237
0.0478391826315
0.0286774360109
0.00955472063077
0.693048897188
0.69287757484
0.692531981317
0.692006126293
0.691290802356
0.690373321218
0.68923714246
0.687861378584
0.686220153923
0.684281788785
0.682007773754
0.679351493253
0.676256654438
0.672655381686
0.668465956967
0.663590238269
0.657910900235
0.651288859451
0.643561640173
0.634544085
0.624033758724
0.611824475524
0.597731901799
0.581633391684
0.5635171509
0.543521660965
0.521933045288
0.499123315863
0.475475813075
0.45133288533
0.426972173693
0.402603517189
0.378376558761
0.354392043979
0.330713051363
0.307374602237
0.284391279975
0.261764253707
0.239482395927
0.217527615676
0.195877113103
0.174505004943
0.153383486974
0.13248365296
0.111776055859
0.09123107231
0.0708191133573
0.0505107104855
0.030276495763
0.0100870939029
0.735392328437
0.735237911423
0.734926324788
0.7344519724
0.73380623503
0.732977197732
0.731949262679
0.730702626351
0.729212591113
0.727448670854
0.725373437516
0.722941039738
0.720095306957
0.716767334398
0.712872432822
0.708306336526
0.702940626218
0.696617505336
0.689144493689
0.680290482857
0.669786233218
0.657335037393
0.642642552156
0.625476143827
0.605755998869
0.583649798683
0.55959002011
0.534135636156
0.507828649803
0.481116474262
0.454332438998
0.427707089764
0.40138973647
0.375469860618
0.349994650532
0.324982141421
0.300430617638
0.276326780396
0.252646467686
0.229360204128
0.206435296421
0.183837263348
0.161530800523
0.139480415152
0.11765082204
0.0960071619219
0.0745150825205
0.0531407077629
0.0318505099311
0.0106110984484
0.778297119476
0.778162729224
0.777891478843
0.777478343696
0.776915570354
0.776192410163
0.775294737922
0.774204531206
0.772899174864
0.7713505411
0.769523776563
0.76737570187
0.764852693887
0.761887874655
0.758397372433
0.754275355269
0.74938748579
0.743562466652
0.736581591286
0.72816702768
0.717971638242
0.70557773075
0.690520749327
0.672365922743
0.650869687486
0.626211080319
0.599107412041
0.570448871332
0.541014727273
0.511377783163
0.481916395528
0.452860743723
0.424338760025
0.396411420461
0.369097134662
0.342387772126
0.316258947549
0.290678461932
0.265606183835
0.240999259708
0.216813745027
0.193005634649
0.169531491201
0.146348801363
0.123416142485
0.100693210976
0.0781407437444
0.0557203500341
0.033394261516
0.0111250082054
0.821734487695
0.821622970041
0.821397831788
0.821054793655
0.820587241608
0.819985983675
0.819238899672
0.818330458427
0.817241065005
0.815946184098
0.814415162359
0.812609638351
0.810481378509
0.807969302835
0.804995353402
0.801458698231
0.797227536686
0.792127478783
0.785925191434
0.778306054324
0.768845830173
0.756981395704
0.742000181681
0.723102300016
0.699647321034
0.671708996426
0.640655622744
0.607994051789
0.574837881258
0.541874294936
0.509481015967
0.47784229422
0.447029642347
0.417051342824
0.387881187215
0.35947477556
0.331778674979
0.304737654033
0.278293218383
0.252387610809
0.226964682271
0.20197031869
0.177352598841
0.153061785886
0.12905020957
0.105272069606
0.0816831752057
0.0582406255787
0.0349024295243
0.0116270637803
0.865668507894
0.865582344489
0.865408358754
0.865143176376
0.864781575203
0.864316282577
0.863737682373
0.863033408163
0.862187787678
0.861181087528
0.859988483036
0.858578641182
0.85691174727
0.85493671461
0.852587166844
0.849775542375
0.846384269041
0.842252264428
0.837153897476
0.830765941783
0.822615928442
0.812005017408
0.797908956845
0.778913522327
0.753423559349
0.720825019037
0.684295808808
0.64649470895
0.608904996971
0.572212263673
0.536677949478
0.502359727133
0.469223221044
0.437195344985
0.406189078426
0.376114731554
0.346884860379
0.318418019632
0.290636291314
0.263466260381
0.236839233923
0.210690883812
0.184960826341
0.159592187669
0.134531167114
0.109726596534
0.0851294880528
0.0606925588314
0.0363697192675
0.0121155152593
0.910056803136
0.909998029592
0.909879333143
0.90969837867
0.909451549714
0.909133801315
0.908738448769
0.908256872433
0.907678111527
0.906988306808
0.906169931743
0.905200720125
0.904052146873
0.902687235115
0.901057305729
0.899097036417
0.896716750107
0.893789887673
0.890131727695
0.885462156991
0.879337427126
0.871021271443
0.859240405237
0.841753321246
0.814841759974
0.7743867804
0.729696358165
0.68524447218
0.642508721973
0.601799791565
0.563042034839
0.526054397178
0.490643012052
0.45662855194
0.423851948534
0.392173417826
0.361469827644
0.331632138485
0.302564003617
0.274176602148
0.246389157866
0.219127616744
0.192323592279
0.165913488037
0.139837739802
0.114040134698
0.0884671733924
0.0630674465303
0.0377909995296
0.012588667192
0.954851427491
0.954821573187
0.954761255196
0.954669287392
0.954543817669
0.954382257971
0.954181174352
0.953936131605
0.953641478079
0.953290048702
0.952872752423
0.952377991418
0.951790827905
0.951091779063
0.95025497428
0.949245308758
0.948013855179
0.946490086877
0.944567935692
0.942079155347
0.938738051351
0.93401541517
0.92681847777
0.914580700586
0.890368124632
0.832702971791
0.775343366979
0.722730216819
0.674508919574
0.629834338506
0.588010919055
0.548525136341
0.510995708167
0.475131133428
0.440701270309
0.407518988176
0.37542819307
0.344295806029
0.314008134364
0.284462910599
0.25556873142
0.22724296214
0.199410133595
0.172000675478
0.144949876472
0.118196993348
0.0916844518117
0.0653570945463
0.0391614397434
0.0130449235165
1
1
1
1
1
1
1
1
1
1
1
1
1
1
1
1
1
1
1
1
1
1
1
1
1
0.891236105727
0.816695751695
0.756243812715
0.703365044381
0.655398818014
0.611003585857
0.569381486948
0.530005634219
0.492500609883
0.456583618664
0.422032341103
0.388665968897
0.356333335569
0.324907211313
0.294274900169
0.264336640194
0.235002939459
0.206192578218
0.177831060255
0.149849366329
0.122182907551
0.0947706053109
0.0675540422193
0.0404766397239
0.013482830015
1
1
1
1
1
1
1
1
1
1
1
1
1
1
1
1
1
1
1
1
1
1
1
1
1
0.915999582592
0.84434658966
0.7825485898
0.727666770845
0.67774834769
0.631565918236
0.588319719245
0.547456602676
0.508576240363
0.471375615995
0.43561651451
0.401105612515
0.367681769663
0.335209631813
0.303570011063
0.272657668657
0.242378408292
0.212646900511
0.183384998534
0.154520385922
0.125985445688
0.0977162715013
0.0696517611335
0.0417327446051
0.0139011119269
1
1
1
1
1
1
1
1
1
1
1
1
1
1
1
1
1
1
1
1
1
1
1
1
1
0.928587368545
0.862400729929
0.802229182243
0.747311334799
0.696678335067
0.649512099263
0.605186393049
0.563224515295
0.523257472624
0.484995153393
0.448203889573
0.412691017691
0.37829424118
0.344876071038
0.312315178325
0.280504020607
0.249346065646
0.218753680238
0.188646471426
0.158949938969
0.129594338628
0.100513682127
0.0716448167232
0.0429265384609
0.0142987046167
1
1
1
1
1
1
1
1
1
1
1
1
1
1
1
1
1
1
1
1
1
1
1
1
1
0.936018865634
0.874609118666
0.816883243066
0.762930764413
0.712418469193
0.664908281007
0.619982571791
0.577283874786
0.536509510792
0.497405661542
0.459759392841
0.423389950271
0.388141805419
0.353880860732
0.320487891122
0.2878561426
0.255889089516
0.224498606249
0.193603478072
0.163128160401
0.133001710577
0.10315683221
0.0735289838116
0.0440555116029
0.0146747756795
1
1
1
1
1
1
1
1
1
1
1
1
1
1
1
1
1
1
1
1
1
1
1
1
1
0.94090702876
0.883249197833
0.827942188216
0.775329824342
0.725402054881
0.677979800222
0.632824389765
0.589691316356
0.548356295801
0.508613176296
0.470279381223
0.433193757971
0.397213589352
0.36221220128
0.328076456482
0.294702993204
0.261997388283
0.229872695492
0.198248221241
0.16704846891
0.136202200253
0.105641571841
0.0753013108069
0.045117898544
0.0150287375059
1
1
1
1
1
1
1
1
1
1
1
1
1
1
1
1
1
1
1
1
1
1
1
1
1
0.944369401308
0.889621972396
0.836450146877
0.785232377924
0.736098738318
0.689022297128
0.643891966796
0.600559327564
0.558866189378
0.518658430495
0.47978718738
0.442114728965
0.405514653199
0.369871212425
0.335079510902
0.301041782515
0.267667466278
0.234872230515
0.202577085355
0.170707566618
0.139192970673
0.107965619021
0.0769601313158
0.0461126858547
0.015360250044
1
1
1
1
1
1
1
1
1
1
1
1
1
1
1
1
1
1
1
1
1
1
1
1
1
0.946949125777
0.894483258271
0.843123666574
0.793214596398
0.744934675281
0.698337449856
0.653394180186
0.61002773255
0.568135862502
0.527606898356
0.488326950237
0.450182387526
0.41306452081
0.376870532468
0.341505010047
0.306877283486
0.272901959877
0.23949844725
0.206590426259
0.174105297776
0.141973614923
0.110128498089
0.0785050258517
0.0470395913176
0.0156692141947
1
1
1
1
1
1
1
1
1
1
1
1
1
1
1
1
1
1
1
1
1
1
1
1
1
0.948940323656
0.898290439935
0.848449639727
0.799713191891
0.752266622534
0.706201402101
0.661538154543
0.618248893167
0.576274817086
0.535539149314
0.495957052668
0.457439006089
0.41989384539
0.383232197131
0.347368775456
0.3122208141
0.277708917921
0.24375702333
0.210292206255
0.177244388797
0.144545972678
0.112131413358
0.0799367396334
0.0478990176522
0.0159557568802
1
1
1
1
1
1
1
1
1
1
1
1
1
1
1
1
1
1
1
1
1
1
1
1
1
0.950516711576
0.901333318689
0.852762699161
0.805053816412
0.758381944819
0.712852961667
0.668515026018
0.62537227446
0.583397425731
0.542542024956
0.502744161048
0.463935199216
0.426041030485
0.38898528854
0.352692820075
0.317089025681
0.282100916757
0.247657428464
0.213689516585
0.180130098551
0.146913877218
0.113977071149
0.081257064862
0.0486919854588
0.0162202092733
1
1
1
1
1
1
1
1
1
1
1
1
1
1
1
1
1
1
1
1
1
1
1
1
1
0.951788136936
0.903803697599
0.856297469317
0.809479236002
0.763508201462
0.718492371417
0.674493810693
0.631536650983
0.589615578493
0.54870352087
0.508758008667
0.469726141029
0.431549378398
0.394163719962
0.357503667165
0.321502633203
0.286094101388
0.251212200419
0.216792032033
0.182769810384
0.149082854903
0.115669465255
0.0824686971766
0.0494200508171
0.0164630799383
1
1
1
1
1
1
1
1
1
1
1
1
1
1
1
1
1
1
1
1
1
1
1
1
1
0.952827884904
0.90583352206
0.859222195457
0.813171808647
0.767824644809
0.723284844306
0.679620218001
0.636866659423
0.595033639833
0.554109743859
0.514067662059
0.474868395196
0.436464633366
0.398804261142
0.361830786511
0.325485188643
0.289707229104
0.254436203174
0.219611439206
0.185172596137
0.151059798858
0.117213640987
0.0835750762472
0.0500852131812
0.0166850247093
1
1
1
1
1
1
1
1
1
1
1
1
1
1
1
1
1
1
1
1
1
1
1
1
1
0.953686969196
0.907516621489
0.861660219205
0.816270051549
0.771472644361
0.72736567304
0.684017997006
0.641471870963
0.599746369275
0.558841252116
0.518740755806
0.47941701503
0.440832989723
0.40294487693
0.365705222793
0.329061964873
0.292960771767
0.257345911984
0.222160873171
0.187348778487
0.15285263638
0.118615451744
0.0845802198281
0.0506898189143
0.0168868150459
1
1
1
1
1
1
1
1
1
1
1
1
1
1
1
1
1
1
1
1
1
1
1
1
1
0.95440213179
0.908921619848
0.863703821691
0.818880481417
0.774564205504
0.730845384583
0.68779135296
0.645447284367
0.603838226093
0.562971728781
0.522840656206
0.483425897899
0.444698825001
0.406623414674
0.36915845141
0.332258988014
0.295876112865
0.2599587569
0.224454388591
0.189309512449
0.154470006083
0.119881319912
0.0854885593156
0.0512364651375
0.0170693063999
1
1
1
1
1
1
1
1
1
1
1
1
1
1
1
1
1
1
1
1
1
1
1
1
1
0.955000570482
0.910099903718
0.865423307838
0.821086002468
0.777188611554
0.733814318287
0.691027632822
0.648874518899
0.607383512786
0.56656746348
0.526425577189
0.48694552859
0.448105479989
0.409875914847
0.372221456739
0.335102230907
0.298474858059
0.262292543927
0.226506482816
0.191066400906
0.155920956802
0.121018011219
0.0863047831987
0.0517279076629
0.0172334078374
1
1
1
1
1
1
1
1
1
1
1
1
1
1
1
1
1
1
1
1
1
1
1
1
1
0.95550287153
0.911090705258
0.86687307835
0.822951858596
0.779417491158
0.736346453853
0.693799884771
0.651823271724
0.610446977369
0.56968735089
0.529548191374
0.490022369844
0.45109346712
0.412737333475
0.374923521612
0.337616965354
0.300778266281
0.26436496284
0.228331680606
0.192631153355
0.157214676207
0.122032428923
0.0870336930178
0.0521669757918
0.0173800538455
1
1
1
1
1
1
1
1
1
1
1
1
1
1
1
1
1
1
1
1
1
1
1
1
1
0.955924896725
0.911924457887
0.868095778574
0.824529889756
0.781308651212
0.738502512686
0.696169126101
0.654352796616
0.613084627799
0.572383194304
0.532255571517
0.492698569166
0.453700045655
0.415240211378
0.377292853927
0.339826913559
0.302806760991
0.26619318198
0.229944183556
0.194015292051
0.158360253437
0.12293143163
0.0876800747363
0.0525564957905
0.0175101789368
1
1
1
1
1
1
1
1
1
1
1
1
1
1
1
1
1
1
1
1
1
1
1
1
1
0.956279039067
0.912625066714
0.869125186431
0.825861604831
0.782908970771
0.740332428383
0.69818627368
0.656513280376
0.615344607819
0.574700168651
0.534589338672
0.495011887697
0.455959028351
0.417414500787
0.379355630151
0.341754726651
0.30457940757
0.267793469687
0.231357582016
0.195229905766
0.159366477031
0.12372167633
0.0882485869411
0.0528992239885
0.0176246953838
1
1
1
1
1
1
1
1
1
1
1
1
1
1
1
1
1
1
1
1
1
1
1
1
1
0.956575080847
0.913211475854
0.869988275044
0.826980425857
0.784256588246
0.741877297505
0.699893748489
0.658347063349
0.617268047665
0.576677346835
0.536585923564
0.496995755666
0.457900670352
0.419287246522
0.381135726138
0.343421240689
0.306114171835
0.269180919603
0.232584565036
0.196285448671
0.160241667131
0.124409486546
0.0887436660905
0.0531977897356
0.0177244741763
1
1
1
1
1
1
1
1
1
1
1
1
1
1
1
1
1
1
1
1
1
1
1
1
1
0.95682080241
0.913698818353
0.870706636841
0.827913343515
0.7853825648
0.743170906768
0.701326785794
0.65988968949
0.618889844373
0.578348230728
0.53827688287
0.49867941492
0.459551680143
0.420882524817
0.38265457308
0.344845298345
0.307427409548
0.270369526561
0.233636810115
0.197191525628
0.160993539128
0.125000744409
0.0891694481716
0.0534546478923
0.0178103291118
1
1
1
1
1
1
1
1
1
1
1
1
1
1
1
1
1
1
1
1
1
1
1
1
1
0.957022390269
0.914099147924
0.871297641016
0.828682148706
0.786312157535
0.744240946085
0.702514500551
0.661170784535
0.620239347654
0.579741249044
0.539689230598
0.500088107007
0.460935294912
0.422221437716
0.383931086467
0.346043637401
0.308533734101
0.27137185998
0.234524937438
0.197956874699
0.161629059371
0.12550079784
0.0895297054921
0.0536720400581
0.0178830037911
1
1
1
1
1
1
1
1
1
1
1
1
1
1
1
1
1
1
1
1
1
1
1
1
1
0.957184774762
0.914422098425
0.87177515628
0.82930434927
0.78706577412
0.745109938067
0.703480748582
0.662214800789
0.621340958734
0.58088020941
0.540845751467
0.501243273806
0.462071386354
0.423322144741
0.384981640967
0.34703082841
0.309445929702
0.272198965085
0.235258316506
0.198589259955
0.162154454654
0.125914389332
0.0898277861932
0.0538519631158
0.0179431612605
1
1
1
1
1
1
1
1
1
1
1
1
1
1
1
1
1
1
1
1
1
1
1
1
1
0.95731183283
0.914675261498
0.872150167075
0.829793861764
0.787659712885
0.745795963879
0.704244788716
0.663041602036
0.62221462627
0.581784700823
0.541765305546
0.502162763632
0.462976587142
0.424199924728
0.385820078708
0.347819241627
0.310174896415
0.272860294494
0.235844992454
0.19909536773
0.162575103597
0.126245640819
0.0900665953506
0.053996143069
0.0179913748365
1
1
1
1
1
1
1
1
1
1
1
1
1
1
1
1
1
1
1
1
1
1
1
1
1
0.957406563374
0.91486451823
0.87243120146
0.830161526145
0.788106718357
0.746313223831
0.704821817441
0.66366693682
0.622876244157
0.582470406042
0.542463070165
0.502861010581
0.463664409701
0.424867243847
0.386457741916
0.348419049762
0.310729624735
0.273363667521
0.236291637892
0.199480756753
0.162895487398
0.126497992153
0.0902485629741
0.0541060263395
0.0180281243993
1
1
1
1
1
1
1
1
1
1
1
1
1
1
1
1
1
1
1
1
1
1
1
1
1
0.957471203134
0.914994263056
0.872624646635
0.830415484397
0.788416394413
0.746672457267
0.705223371228
0.664102807909
0.62333797409
0.582949372887
0.542950747543
0.503349184268
0.464145346739
0.425333813579
0.386903491378
0.348838224592
0.311117179546
0.273715242773
0.236603518721
0.199749821569
0.163119154267