/*--------------------------------*- C++ -*----------------------------------*\
| =========                 |                                                 |
| \\      /  F ield         | OpenFOAM: The Open Source CFD Toolbox           |
|  \\    /   O peration     | Version:  5.x                                   |
|   \\  /    A nd           | Web:      www.OpenFOAM.org                      |
|    \\/     M anipulation  |                                                 |
\*---------------------------------------------------------------------------*/
FoamFile
{
    version     2.0;
    format      ascii;
    class       volScalarField;
    location    "953";
    object      T;
}
// * * * * * * * * * * * * * * * * * * * * * * * * * * * * * * * * * * * * * //

dimensions      [0 0 0 1 0 0 0];

internalField   nonuniform List<scalar> 
250000
(
0.0158983027397
0.0158841298396
0.0158557108866
0.0158129059606
0.0157555056917
0.0156832367694
0.0155957696075
0.0154927280705
0.0153737014058
0.0152382585251
0.015085964688
0.0149164005273
0.0147291832124
0.0145239893604
0.0143005790847
0.0140588203218
0.0137987123216
0.0135204069525
0.0132242263007
0.0129106749661
0.0125804455315
0.0122344159263
0.0118736378402
0.0114993159602
0.011112778545
0.0107154390145
0.0103087577246
0.00989419467659
0.00947316419567
0.00904699416153
0.00861689033443
0.00818390868332
0.00774893716264
0.00731268768508
0.00687569844993
0.0064383465872
0.00600087195488
0.00556341747107
0.00512571142686
0.00468739492779
0.0042481133229
0.00380754632247
0.0033654346565
0.00292160265566
0.00247597570488
0.00202859135607
0.00157960266325
0.00112927182404
0.000677950233809
0.000226044552205
0.0477232561441
0.0476808011153
0.0475956659487
0.0474674324646
0.0472954669351
0.0470789416005
0.0468168578045
0.046508075028
0.046151346553
0.045745362265
0.045288798773
0.0447803767005
0.0442189245677
0.0436034481372
0.0429332034143
0.0422077707309
0.041427126547
0.0405917088674
0.0397024716072
0.03876092298
0.0377691431615
0.0367297772055
0.0356460005128
0.0345214560369
0.0333601647236
0.0321664085295
0.0309446122982
0.0296992003478
0.0284344565433
0.0271543997219
0.0258626745026
0.0245624668037
0.0232564484126
0.0219467527266
0.0206349817617
0.0193222432455
0.0180092166649
0.0166962494663
0.0153826243605
0.0140672390279
0.0127490073096
0.011426947395
0.0101002618444
0.00876840563463
0.00743113861244
0.00608855852124
0.00474111013137
0.00338956476558
0.00203496182674
0.000678512536392
0.0796388623132
0.0795683309725
0.079426917106
0.0792139011612
0.0789282082806
0.0785684345348
0.078132884005
0.077619616477
0.0770265065399
0.0763513147493
0.0755917712523
0.0747456717817
0.0738109852119
0.0727859709362
0.0716693031563
0.0704601978486
0.0691585367513
0.0677649813754
0.0662810689584
0.0647092817071
0.0630530808472
0.0613168981459
0.0595060797929
0.0576267808029
0.0556858121936
0.0536904404254
0.0516481811082
0.0495665524199
0.0474528311235
0.0453138363298
0.0431557401576
0.0409839217062
0.0388028717814
0.0366161516559
0.0344264052587
0.0322354212003
0.0300442393001
0.0278532956887
0.0256615455059
0.0234670898085
0.0212680559552
0.0190627475711
0.0168497802685
0.0146281965936
0.0123975539798
0.0101579791463
0.0079101816011
0.00565541787713
0.00339539823598
0.00113214702737
0.111716956441
0.11161878262
0.111421936076
0.111125388036
0.110727597496
0.110226548587
0.109619801338
0.108904557245
0.108077740885
0.107136098706
0.106076315821
0.104895150984
0.103589588951
0.102157008119
0.100595359636
0.098903352225
0.097080634772
0.0951279666293
0.0930473637305
0.0908422074981
0.0885173034571
0.0860788778764
0.0835345038649
0.0808929531702
0.0781639761614
0.0753580096054
0.0724858704556
0.0695583922154
0.066586061849
0.0635786976967
0.0605451679646
0.05749317432
0.0544291115894
0.0513580078753
0.0482835431399
0.0452081392764
0.042133111194
0.0390588660129
0.0359841413749
0.0329061675871
0.0298222071872
0.0267297723774
0.0236268200248
0.0205119155331
0.0173843567776
0.0142442490172
0.0110925214156
0.00793087634959
0.0047616679446
0.00158773752859
0.144037186659
0.143912046384
0.143661109933
0.143283016216
0.142775723248
0.142136554518
0.141362262019
0.140449108011
0.139392967413
0.138189452669
0.136834062626
0.135322356199
0.133650150417
0.131813740774
0.129810139568
0.127637325216
0.125294492471
0.122782290279
0.120103031105
0.117260853467
0.114261818694
0.11111392431
0.107827020236
0.104412620587
0.100883612672
0.0972538626434
0.0935377929368
0.0897498809123
0.0859041540652
0.0820137401897
0.0780904748494
0.0741446005061
0.0701845726977
0.0662169785894
0.0622465638775
0.0582763566674
0.0543078720382
0.0503413780868
0.0463754918715
0.0424064778117
0.0384306337325
0.0344445805914
0.0304455208753
0.0264314540599
0.0224013374785
0.0183551815292
0.0142940692682
0.0102200935112
0.00613621530138
0.00204608812328
0.17668508105
0.176533938014
0.176230824944
0.175774020396
0.17516093811
0.174388180595
0.173451612058
0.172346453634
0.17106740366
0.16960878585
0.16796472794
0.166129372662
0.164097121547
0.161862910117
0.159422510246
0.156772851989
0.153912353028
0.150841239302
0.147561835945
0.144078803962
0.140399296032
0.136533005562
0.132492087262
0.128290935888
0.123945821844
0.119474382137
0.114895059418
0.110226433818
0.105486543883
0.100692276879
0.0958588373594
0.0909993408394
0.0861245537074
0.0812427857027
0.0763599277793
0.071479617932
0.0666035115148
0.061731630897
0.0568625546605
0.0519914652277
0.0471135731394
0.042224481998
0.0373205159926
0.0323989912749
0.0274584159973
0.0224986069148
0.0175207136262
0.0125271470914
0.00752142361393
0.00250798057223
0.209750141512
0.209574278927
0.209221538447
0.20868980594
0.207975901224
0.207075636283
0.205983894758
0.204694736652
0.203201532129
0.201497128566
0.199574054924
0.197424766894
0.195041935001
0.192418775655
0.189549422012
0.186429327142
0.183055686645
0.179427861502
0.175547775324
0.171420253956
0.167053271049
0.162458062107
0.157649073347
0.152643721548
0.147461957138
0.142125626116
0.136657741658
0.13108160887
0.125419925135
0.119693964421
0.11392286671
0.108123096028
0.102308095967
0.096488149889
0.0906704336466
0.0848592342772
0.0790563004808
0.0732612919649
0.0674727999594
0.0616847968531
0.0558912593863
0.0500866147059
0.0442661494169
0.0384263446572
0.032565119197
0.0266819695699
0.0207780009436
0.0148558492756
0.00891951101095
0.00297414174255
0.243323895957
0.243124943983
0.24272581742
0.242123974617
0.241315588263
0.240295604708
0.239057825447
0.237595015858
0.23589904638
0.233961071922
0.231771755532
0.229321542071
0.226600986637
0.223601140337
0.220313992645
0.216732964556
0.212853439984
0.208673314459
0.204193530518
0.19941855935
0.194356779887
0.189020701907
0.18342698154
0.177596188161
0.171552302224
0.165321932901
0.158933384269
0.152415517154
0.145796563173
0.139103036965
0.132358789003
0.125584285394
0.118796154207
0.112007006006
0.105225508368
0.0984566737301
0.0917023075141
0.0849615613373
0.0782329813363
0.0715092522263
0.0647829414272
0.058047093206
0.0512957509664
0.0445243676205
0.0377300959845
0.0309119542355
0.024070864169
0.0172095660236
0.0103324279003
0.00344521003866
0.277497916382
0.27727787472
0.276836342041
0.276170314589
0.275275265028
0.274145198332
0.272772729451
0.27114918898
0.269264763487
0.267108678193
0.264669430452
0.261935082832
0.258893624146
0.25553340512
0.251843652141
0.247815057142
0.243440433703
0.238715418682
0.233639185231
0.22821511803
0.222451386833
0.21636134338
0.209963663642
0.203282166632
0.196345266114
0.189185029623
0.181835989615
0.174333664366
0.166712991753
0.159006874383
0.15124491377
0.143452452477
0.135649978418
0.127852898349
0.120071647932
0.112312077608
0.1045760333
0.0968620193316
0.089168001884
0.081485692471
0.0738059764234
0.0661202260274
0.0584209738699
0.0507024016395
0.0429606775597
0.0351941465409
0.0274033740033
0.0195910484314
0.0117617590407
0.0039217029845
0.312361797971
0.312123052708
0.311643868155
0.31092074752
0.309948415728
0.308719866437
0.30722642876
0.305457861021
0.3034024797
0.301047333291
0.298378432337
0.29538104822
0.292040093846
0.288340598729
0.284268288501
0.27981027378
0.274955844647
0.269697353919
0.264031154545
0.257958534334
0.251486567023
0.24462877669
0.237405499324
0.229843829057
0.221977064268
0.213843598758
0.20548541276
0.19694614214
0.188268995968
0.179494796536
0.170660277412
0.16179680558
0.152929601563
0.144077460782
0.135252923941
0.126462810868
0.117709023865
0.108989554754
0.100299763451
0.0916320655034
0.0829749824593
0.0743177970329
0.0656511926359
0.0569677817801
0.0482624820237
0.0395327274172
0.030778513282
0.0220022778248
0.0132086325143
0.00440398701076
0.348001095457
0.347746429173
0.3472351438
0.3464632263
0.345424617273
0.344111242823
0.342513062019
0.340618138181
0.3384127435
0.335881508719
0.33300763199
0.329773163942
0.326159388077
0.322147316661
0.317718321588
0.312854916054
0.307541694611
0.301766424683
0.295521260145
0.288804016751
0.281619411391
0.273980127511
0.26590753715
0.257431899418
0.248591880186
0.239433280447
0.230007120916
0.220367098491
0.210566788333
0.200656975305
0.190683346466
0.180684780004
0.170692329605
0.160728895148
0.150809491454
0.140941983692
0.131128147139
0.121364919713
0.111645714301
0.101962431661
0.0923010529408
0.0826484089022
0.0729929580739
0.0633253926281
0.0536390611244
0.0439302003791
0.0341979749689
0.0244443262829
0.0146736374354
0.00489225015766
0.38449522286
0.384227816429
0.383690784302
0.382879586367
0.381787360284
0.380404931365
0.378720831477
0.376721335794
0.374390527964
0.371710407001
0.368661052167
0.365220868079
0.361366936042
0.3570755011
0.352322626866
0.347085049809
0.34134125905
0.33507281372
0.328265884219
0.320912963174
0.313014636041
0.304581234696
0.295634132687
0.286206400179
0.276342546199
0.266097125027
0.255532297086
0.244714429089
0.233710286751
0.222583350788
0.211390657602
0.200180501338
0.188991125756
0.177850364858
0.166776079711
0.155777186452
0.144855064664
0.134005158661
0.123218618239
0.112486285898
0.101791078342
0.0911168931846
0.0804495076976
0.0697772729795
0.0590915886416
0.0483871524343
0.0376619855776
0.0269172348633
0.0161567522177
0.00538647833799
0.421915337162
0.421638761236
0.421083125194
0.42024336842
0.419111832544
0.41767824223
0.415929685682
0.413850603741
0.411422798825
0.408625478054
0.405435345585
0.401826774003
0.397772087419
0.393241995939
0.388206228985
0.382634420591
0.376497300185
0.369768233063
0.362425129434
0.354452692328
0.345844897195
0.336607490312
0.326760173869
0.316338047239
0.305391846121
0.293986559517
0.282198297837
0.270109639828
0.257804394727
0.245362420014
0.232855250862
0.220343010722
0.207872762376
0.195478181701
0.183180288634
0.170988915551
0.158904605823
0.146920687253
0.135025339735
0.123207726379
0.111447076364
0.0997237633679
0.0880203263977
0.0763222696099
0.0646185927298
0.05290205181
0.0411691574598
0.0294199125879
0.0176572854545
0.00588643585375
0.460322245461
0.460040439319
0.459474091507
0.458617650031
0.45746270072
0.455997912136
0.454208967873
0.452078494352
0.449585995927
0.446707814714
0.443417113197
0.439683931332
0.435475351389
0.43075581918
0.425487686782
0.419632056528
0.413150017475
0.406004367947
0.398161900991
0.389596279975
0.380291433198
0.370245238661
0.359473062424
0.348010508019
0.335914639164
0.323262998841
0.310149513289
0.296677832203
0.282954158682
0.269079728395
0.25514471545
0.24122408538
0.227375602125
0.213639683249
0.200040645354
0.186588844332
0.173283267719
0.160114229847
0.147065913751
0.134124666912
0.1212655543
0.108464714655
0.0957007619191
0.0829557460953
0.0702157384842
0.057471088369
0.0447163750018
0.0319500600312
0.0191738317734
0.00639165094728
0.499764397083
0.49948163238
0.498913144529
0.498052946731
0.496891950069
0.49541786688
0.493615086006
0.491464525289
0.488943472939
0.486025463178
0.482680085811
0.478872890695
0.474565374461
0.469715109082
0.464276096118
0.458199456056
0.451434590991
0.443930983501
0.435640801576
0.426522446067
0.416545070736
0.405693888333
0.393975730271
0.38142390545
0.368101160237
0.354100316453
0.339538731758
0.324547746485
0.309263620507
0.293815822085
0.278318604332
0.262865444569
0.247526849346
0.232350696343
0.217364366099
0.202577908323
0.187987621869
0.173579598936
0.15933289488
0.145228074252
0.131236903864
0.117330181863
0.10348170897
0.0896693592931
0.0758756712511
0.0620880651339
0.0482987211646
0.0345041220191
0.0207042452988
0.00690140724505
0.540276044888
0.53999687181
0.5394353905
0.538585267469
0.53743686723
0.535977110974
0.534189288862
0.532052823393
0.529542970179
0.526630717499
0.523282226682
0.519458611152
0.515115669364
0.510203721449
0.504667645713
0.498447249858
0.49147816602
0.483693519903
0.475026678755
0.465415400565
0.454807632029
0.443168949883
0.430491106967
0.41680025422
0.40216213321
0.386688445699
0.370529222905
0.353851734382
0.336834070385
0.319643288543
0.302424873395
0.285295068772
0.268339086359
0.251612482946
0.235144783399
0.218944193749
0.203002562959
0.187300099215
0.171809665098
0.156500943752
0.141344809369
0.126304982789
0.111349388472
0.0964509232481
0.0815879349543
0.0667443512361
0.0519094516752
0.0370772742909
0.0222456334711
0.00741474197904
0.581875680995
0.581604854178
0.581059957332
0.580234432161
0.57911827554
0.577697854613
0.575955658383
0.573869981738
0.571414539929
0.568558053614
0.565263686731
0.561488482443
0.55718277298
0.552289616915
0.546744356354
0.540474444204
0.533399774176
0.525433858986
0.516486337952
0.506467425139
0.495294958384
0.482904528739
0.469262526309
0.454380600712
0.438328121311
0.421238119288
0.403298149318
0.384725305044
0.365761199421
0.346622273589
0.327494853549
0.308522279142
0.289805884765
0.271408080693
0.253358445874
0.235660720645
0.218299590178
0.201246729786
0.184465919816
0.167917158642
0.151565847464
0.135368138147
0.119285267198
0.10328438586
0.0873389814666
0.0714289070916
0.0555400241751
0.0396634488042
0.0237943738106
0.00793045181085
0.624564893926
0.624307300847
0.623788850436
0.623002919107
0.62193937336
0.620584346422
0.618919930557
0.616923777615
0.614568598312
0.611821554519
0.608643518851
0.604988206006
0.60080118983
0.596018829166
0.590567166527
0.584360935937
0.577302922935
0.56928409287
0.560185154128
0.549880548697
0.5382461983
0.525172473707
0.510583340439
0.494460715594
0.47686905318
0.457969678928
0.438011430513
0.417294764314
0.396130387987
0.37479339247
0.353536092469
0.332531131926
0.31189627237
0.291697989529
0.27196195401
0.252683305021
0.233835740201
0.215379077843
0.197265278735
0.17944305764
0.161869828931
0.144492990192
0.12726615673
0.110149938351
0.0931122842898
0.0761283910016
0.0591801885106
0.0422554015607
0.0253461557218
0.00844710691755
0.668327672869
0.668088235489
0.667606166975
0.666874964515
0.66588464819
0.664621505893
0.663067736155
0.661200975455
0.658993691202
0.656412417452
0.653416802447
0.649958439113
0.645979457114
0.641410854607
0.636170575163
0.630161407094
0.623268886579
0.615359606855
0.606280707873
0.595861918907
0.583922378612
0.570285408318
0.554804812395
0.537404467943
0.518126092748
0.497166177749
0.474869458074
0.451661361452
0.427968182633
0.404158822515
0.380522416822
0.35727156809
0.334547872248
0.312415246573
0.290888633112
0.26994843445
0.249552229688
0.229643883459
0.210160382535
0.191036768559
0.172219863929
0.153647410877
0.135264456249
0.117024258844
0.0988885637127
0.0808273533736
0.0628181423541
0.0448448254366
0.0268960485978
0.00896307372003
0.713130300642
0.712913842583
0.712477902145
0.711816305025
0.710919547242
0.709774519721
0.70836411842
0.70666672033
0.70465549723
0.702297530035
0.69955267516
0.69637212325
0.692696579139
0.68845397869
0.683556661366
0.677897930992
0.671348024177
0.663749700566
0.654914095714
0.644618330344
0.632607924351
0.61860954866
0.60236271294
0.583680201803
0.562539169876
0.539174788482
0.514094322094
0.487929128374
0.461281249641
0.434638280136
0.408351536228
0.382647327588
0.357658704133
0.33346018294
0.310045408192
0.287371569538
0.265373637727
0.243974728064
0.223093443311
0.202648820937
0.182572722952
0.16279419569
0.14324856443
0.12388090276
0.104646130986
0.0855085226295
0.0664407539934
0.0474225086377
0.0284385963328
0.0094765462476
0.758922023552
0.758733129108
0.758352589177
0.757774779225
0.756991018229
0.755989288765
0.754753838436
0.753264637508
0.751496656866
0.749418917101
0.746993241887
0.744172625523
0.740899093762
0.737100896604
0.73268882412
0.727551385855
0.72154857185
0.71450394592
0.706195127274
0.696343528971
0.684606281709
0.670577745098
0.653816400685
0.633924759979
0.610714115139
0.584440470619
0.555922512944
0.526154598534
0.496002901494
0.466098149944
0.436845007059
0.408471116597
0.381078484659
0.354695638205
0.329310532102
0.304846388642
0.281207981731
0.258292466932
0.235996697683
0.214222192727
0.192879192027
0.171891643163
0.151183489749
0.130690857215
0.110361357915
0.090153183572
0.0700338508203
0.0499785368842
0.0299679368296
0.00998558563029
0.805636525674
0.805479398798
0.805162767534
0.804681781777
0.804028936423
0.803193806983
0.802162672404
0.80091799647
0.799437727589
0.797694360694
0.795653682038
0.793273084195
0.790499289893
0.787265251702
0.783485890485
0.779052185578
0.773822923747
0.767613158904
0.760178195483
0.751192021742
0.740220449434
0.726694267402
0.709902284498
0.68905866851
0.663558890842
0.633556148892
0.60057532296
0.566287201441
0.531933928791
0.498281779102
0.465741181327
0.434491868205
0.404573504757
0.375943956565
0.348533117279
0.322245629472
0.296948137997
0.27250671205
0.248793073841
0.225688205175
0.203084395562
0.180894490233
0.159031735697
0.137423280971
0.116009272514
0.0947416425887
0.073582567103
0.0525025341086
0.0314779432146
0.0104881666046
0.853194225566
0.853072552845
0.852827297841
0.852454596311
0.851948454952
0.851300522449
0.850499766942
0.849532028569
0.848379407603
0.847019432832
0.845423929989
0.843557471784
0.841375231868
0.838819972017
0.835817742486
0.832271631949
0.828052500865
0.822984964601
0.816825808382
0.809230358955
0.799700347085
0.787506471134
0.771589363326
0.750496251238
0.722600080511
0.687322762133
0.648155024003
0.608040170962
0.568646523137
0.53075362504
0.494651292676
0.460381661245
0.42786632152
0.396970467056
0.367535654024
0.339424227186
0.312475109832
0.286519276885
0.261401306052
0.236980635302
0.213132137312
0.189755901
0.16675455728
0.144046424262
0.121564261785
0.0992537625617
0.0770717378807
0.0549839325166
0.0329623813919
0.0109822292669
0.901505316756
0.901422144754
0.901254450792
0.900999534628
0.900653210409
0.900209622107
0.899661010354
0.898997382907
0.898206057703
0.897271034448
0.896172128585
0.894883766811
0.893373287979
0.891598502045
0.889504104669
0.887016272088
0.884034262894
0.880416910121
0.875960035373
0.870357063068
0.863127389335
0.853481552467
0.84006519979
0.820503993066
0.790854008845
0.746722699821
0.698322403464
0.650630911455
0.605343527045
0.562840532646
0.523043109457
0.485728221016
0.450637702735
0.417514976752
0.386117037492
0.356225204062
0.327663073303
0.300228045365
0.273737920771
0.248031091855
0.222965721886
0.198428881597
0.174313189909
0.150528603781
0.12700082741
0.103669536659
0.0804863191465
0.0574122592431
0.0344150767147
0.0114657337357
0.950473303382
0.950431069284
0.95034563736
0.950215745719
0.950039246187
0.949813104366
0.94953328996
0.949194604168
0.948790432878
0.948312404639
0.947749915865
0.947089464187
0.946313696648
0.945400021545
0.944318530482
0.943028788993
0.94147468954
0.939575813223
0.937212108566
0.934194822363
0.930206642612
0.924665851617
0.916381925297
0.902571946497
0.875700933445
0.812180536687
0.74938202336
0.692331490797
0.64071033492
0.593610605832
0.550260004307
0.510060956863
0.472542234782
0.437318062095
0.404062114314
0.372491945984
0.342386525582
0.313531949978
0.285720833141
0.258772500063
0.232530066169
0.206867870937
0.181670104486
0.156839190107
0.132294351498
0.107969669004
0.0838118119124
0.0597774248662
0.0358300814105
0.0119367150114
1
1
1
1
1
1
1
1
1
1
1
1
1
1
1
1
1
1
1
1
1
1
1
1
1
0.878565293019
0.796116019022
0.72999769109
0.672938243349
0.621978387648
0.575609310434
0.532911392572
0.493247274247
0.456134120319
0.421183474282
0.388070273674
0.356526678914
0.326336287459
0.29727329157
0.26914216358
0.241774277848
0.215030317548
0.188790211897
0.162949554956
0.137421831379
0.112136130894
0.0870346674259
0.0620699985218
0.0372018340202
0.0123933351949
1
1
1
1
1
1
1
1
1
1
1
1
1
1
1
1
1
1
1
1
1
1
1
1
1
0.906872517088
0.827622123672
0.759831147431
0.700348526351
0.647039559518
0.598532117037
0.553901685163
0.512481638593
0.473760176519
0.437324482572
0.402829827031
0.369982335831
0.338558663201
0.308327687291
0.279083990802
0.250650814048
0.222877600593
0.195641892618
0.168833928814
0.142362547037
0.116152663604
0.0901426519422
0.0642814549431
0.0385253024126
0.0128339303181
1
1
1
1
1
1
1
1
1
1
1
1
1
1
1
1
1
1
1
1
1
1
1
1
1
0.921319636995
0.848332694274
0.782343327176
0.722724830977
0.668494006544
0.618764858383
0.572817652371
0.530073303295
0.490057291003
0.452371585208
0.4166756281
0.382673846269
0.350132892013
0.318828699472
0.288551274877
0.259119225694
0.230376828416
0.202198117215
0.174470186624
0.147098636428
0.120005201906
0.0931251512815
0.066404380121
0.0397961027906
0.0132570493271
1
1
1
1
1
1
1
1
1
1
1
1
1
1
1
1
1
1
1
1
1
1
1
1
1
0.929870438006
0.862420494346
0.799245469788
0.740694476547
0.686533081205
0.636328684801
0.589616555401
0.54595851018
0.504958137323
0.466261002337
0.429550863466
0.394545597551
0.361011430682
0.328735454874
0.297509066954
0.267150498833
0.237502615266
0.208437388564
0.179840455144
0.151615526331
0.123682188441
0.0959733968552
0.0684326243458
0.0410105885322
0.0136614832517
1
1
1
1
1
1
1
1
1
1
1
1
1
1
1
1
1
1
1
1
1
1
1
1
1
0.935516488745
0.872455192311
0.812112839358
0.75510952717
0.701589007002
0.651430424382
0.604387587577
0.560165811227
0.518460506592
0.478975523821
0.441431583715
0.405570063899
0.371166832394
0.338022241279
0.30593410158
0.274724126275
0.244236804411
0.214343964782
0.184931382557
0.155902162505
0.127174754254
0.0986806001657
0.0703613952395
0.0421659049428
0.014046283319
1
1
1
1
1
1
1
1
1
1
1
1
1
1
1
1
1
1
1
1
1
1
1
1
1
0.939541872601
0.879916635524
0.822110138777
0.766754447842
0.714150938582
0.66436191567
0.617299092758
0.572788516572
0.530612752291
0.490536795235
0.452323667774
0.415743808786
0.380590289076
0.346677826876
0.313814430447
0.281828403943
0.250568358868
0.219907820168
0.189734159382
0.159951053492
0.130476765671
0.101241993957
0.0721872892049
0.0432600089509
0.0144107676859
1
1
1
1
1
1
1
1
1
1
1
1
1
1
1
1
1
1
1
1
1
1
1
1
1
0.942569776253
0.885667145932
0.83004247916
0.776261473427
0.724671900539
0.675431213919
0.628553893633
0.583957116773
0.541497049966
0.500995206341
0.462256769339
0.425083073569
0.38928896339
0.354703840067
0.321148435075
0.288459917808
0.256492962448
0.225124364349
0.194244334301
0.163758153232
0.133584750587
0.10365478698
0.0739082650687
0.0442916556341
0.0147545173616
1
1
1
1
1
1
1
1
1
1
1
1
1
1
1
1
1
1
1
1
1
1
1
1
1
0.944936120811
0.89022817559
0.836458589673
0.784113158501
0.733535655183
0.68492563323
0.638359176613
0.593817460214
0.551214390401
0.510419800479
0.471277541603
0.43361901044
0.397282774191
0.362112614354
0.327943381678
0.294622582699
0.262012336377
0.229993950135
0.198461462022
0.167322611387
0.136497723772
0.105918044974
0.0755235676214
0.0452603557155
0.0150773626213
1
1
1
1
1
1
1
1
1
1
1
1
1
1
1
1
1
1
1
1
1
1
1
1
1
0.946838052235
0.893928997928
0.841735566526
0.790670530482
0.741053497873
0.693096513072
0.64690943983
0.602515952575
0.559873009346
0.518889666502
0.479443357022
0.441393085737
0.404601098451
0.368924834389
0.33421374238
0.300326441688
0.267133364248
0.234521228576
0.202388627349
0.170646424267
0.139216934601
0.108032513809
0.0770336112106
0.0461663096425
0.0153793617021
1
1
1
1
1
1
1
1
1
1
1
1
1
1
1
1
1
1
1
1
1
1
1
1
1
0.94839935066
0.896986455909
0.846137220888
0.796202936894
0.747472911793
0.700156172742
0.654378652274
0.610190788934
0.567580434904
0.526487356925
0.486817097856
0.448453060178
0.411279718006
0.37516723791
0.33997947457
0.30558637921
0.271867125366
0.23871441779
0.206031892749
0.173734020843
0.141745562064
0.110000402062
0.0784398346717
0.0470103245929
0.0156607738236
1
1
1
1
1
1
1
1
1
1
1
1
1
1
1
1
1
1
1
1
1
1
1
1
1
0.949702010422
0.899548877983
0.849852078481
0.800912535697
0.752989226588
0.70628065296
0.66091801989
0.616967561205
0.574438587877
0.533294287513
0.493463156365
0.454849761517
0.417358203441
0.380870538801
0.345264395582
0.31042086008
0.276227925209
0.242584546182
0.209399713419
0.176591816512
0.144088381023
0.11182514004
0.0797445388601
0.0477937208145
0.0159220286097
1
1
1
1
1
1
1
1
1
1
1
1
1
1
1
1
1
1
1
1
1
1
1
1
1
0.950802730534
0.901721147936
0.853017816931
0.804952633905
0.757756621134
0.711614612831
0.666656761599
0.622957700055
0.580541161042
0.539387808288
0.499444454468
0.460634784291
0.422877795876
0.386067649299
0.350094733379
0.314850764858
0.280232408632
0.246144713649
0.212502354879
0.179227762623
0.146251421022
0.11351113065
0.0809507171329
0.0485182332443
0.0161636938519
1
1
1
1
1
1
1
1
1
1
1
1
1
1
1
1
1
1
1
1
1
1
1
1
1
0.951742124525
0.90357959336
0.855737067882
0.808440918139
0.761897305846
0.716276563156
0.671704263216
0.628258580694
0.585972569422
0.544839697124
0.504821101812
0.465858230378
0.427879626187
0.390792207568
0.35449788981
0.318898322812
0.283898503345
0.249409361557
0.215351336928
0.181650914747
0.148241635492
0.115063505093
0.0820618875784
0.0491859135063
0.0163864432827
1
1
1
1
1
1
1
1
1
1
1
1
1
1
1
1
1
1
1
1
1
1
1
1
1
0.952550125828
0.90518115963
0.858087813575
0.811468880854
0.765508771325
0.720363643768
0.676152676461
0.632954479518
0.59080781884
0.549715445437
0.509649779208
0.470567072476
0.43240347616
0.395077481552
0.358501471912
0.322586262097
0.287244605312
0.252393668211
0.217958947888
0.183871042102
0.150066595713
0.116487893431
0.0830819338245
0.0497990362898
0.016591025683
1
1
1
1
1
1
1
1
1
1
1
1
1
1
1
1
1
1
1
1
1
1
1
1
1
0.953249336532
0.90656922241
0.860130312507
0.814108522374
0.768669358214
0.723955680768
0.680079485186
0.637117886598
0.595112844752
0.554073768724
0.513982055081
0.474805611827
0.436487247317
0.398955646754
0.362132602598
0.325937320025
0.29028978893
0.255113222136
0.220337861348
0.185898289837
0.151734217411
0.117790216224
0.0840149589818
0.0503600128928
0.0167782362589
1
1
1
1
1
1
1
1
1
1
1
1
1
1
1
1
1
1
1
1
1
1
1
1
1
0.953857166158
0.907777424199
0.861911828223
0.816417146048
0.771442487226
0.727118506673
0.683549832024
0.640810928288
0.598945192458
0.55796665288
0.517864694226
0.47861474042
0.440166413518
0.402457227258
0.365417347557
0.328973601922
0.293052676238
0.257583484225
0.222500755931
0.187742875816
0.153252518867
0.118976499527
0.0848651551508
0.0508713135844
0.016948890866
1
1
1
1
1
1
1
1
1
1
1
1
1
1
1
1
1
1
1
1
1
1
1
1
1
0.954387248271
0.908832254109
0.863469911678
0.818440819269
0.773879860073
0.729906621669
0.686618531245
0.644086761547
0.602354953125
0.561440205098
0.521339350543
0.482031572386
0.44347365371
0.405610701684
0.368380300176
0.331716165756
0.295551135147
0.259819430446
0.224460006199
0.189414833808
0.154629413383
0.120052714804
0.0856366897186
0.0513353996143
0.0171038033756
1
1
1
1
1
1
1
1
1
1
1
1
1
1
1
1
1
1
1
1
1
1
1
1
1
0.954850405273
0.909754841283
0.864834669517
0.820216870024
0.776023864158
0.732365300684
0.68933174525
0.646990794642
0.605385586294
0.564535293296
0.524442646937
0.485089410163
0.446438695565
0.408442268003
0.371044304025
0.334184734753
0.297802019946
0.26183528727
0.226227440188
0.190923804119
0.155872536481
0.121024643894
0.0863336086139
0.0517546650385
0.0172437662537
1
1
1
1
1
1
1
1
1
1
1
1
1
1
1
1
1
1
1
1
1
1
1
1
1
0.955255299215
0.910562131261
0.866030560946
0.821775770358
0.777909407532
0.734532211472
0.69172833192
0.649561700163
0.608074473778
0.567287340856
0.527207207544
0.487818011219
0.449088319162
0.410975729344
0.373430279484
0.336397498364
0.299820969988
0.263644330559
0.227814150872
0.192278866541
0.156989105294
0.121897767619
0.0869597557499
0.0521313879855
0.0173695342421
1
1
1
1
1
1
1
1
1
1
1
1
1
1
1
1
1
1
1
1
1
1
1
1
1
0.95560896223
0.911267954173
0.867077435216
0.82314251674
0.779565382846
0.736438794382
0.693840981598
0.651832269991
0.610453442927
0.569727205655
0.529661701707
0.490243700004
0.45144638596
0.413232444707
0.375557121648
0.338370978363
0.301622263035
0.265258735247
0.229230351723
0.19348840938
0.157985806314
0.12267717565
0.0875187072184
0.0524676906048
0.0174818109038
1
1
1
1
1
1
1
1
1
1
1
1
1
1
1
1
1
1
1
1
1
1
1
1
1
0.955917068059
0.911883482404
0.867991531622
0.824337621725
0.781015646207
0.738111244031
0.695697217834
0.653830417247
0.612550117893
0.57188103025
0.531830879858
0.492389446755
0.45353386713
0.415231297993
0.377441627452
0.340119945871
0.3032187126
0.266689465287
0.230485267753
0.194560028385
0.158868707225
0.123367494783
0.0880137184421
0.0527655067087
0.017581237705
1
1
1
1
1
1
1
1
1
1
1
1
1
1
1
1
1
1
1
1
1
1
1
1
1
0.95618422916
0.912417819799
0.868786086598
0.825377895996
0.782279861901
0.739571270179
0.697319980337
0.655579599413
0.614388049736
0.57377118629
0.533736037258
0.494275102752
0.45536897644
0.416988760977
0.379098482908
0.34165733124
0.304621578715
0.267946179193
0.231587041339
0.195500438653
0.159643179564
0.123972825726
0.0884476775295
0.0530265533458
0.0176683846708
1
1
1
1
1
1
1
1
1
1
1
1
1
1
1
1
1
1
1
1
1
1
1
1
1
0.9564141573
0.912878314459
0.869471827571
0.826277022562
0.783374113694
0.740836721026
0.69872819882
0.657099049198
0.615987168213
0.575416661135
0.535395213804
0.4959175442
0.456967252958
0.418518936017
0.380540325481
0.342994288115
0.305840566015
0.269037206754
0.2325427002
0.196315439834
0.160313865048
0.124496713663
0.0888230821746
0.0532523155817
0.0177437445453
1
1
1
1
1
1
1
1
1
1
1
1
1
1
1
1
1
1
1
1
1
1
1
1
1
0.956609800402
0.913270817448
0.870057326621
0.827045981812
0.784311369225
0.741922073261
0.699937371375
0.658405357008
0.617363260207
0.57683302117
0.53682330561
0.497330749429
0.45834159389
0.419833541988
0.381777650016
0.344140102834
0.306883772103
0.269969500466