/*--------------------------------*- C++ -*----------------------------------*\
| =========                 |                                                 |
| \\      /  F ield         | OpenFOAM: The Open Source CFD Toolbox           |
|  \\    /   O peration     | Version:  5.x                                   |
|   \\  /    A nd           | Web:      www.OpenFOAM.org                      |
|    \\/     M anipulation  |                                                 |
\*---------------------------------------------------------------------------*/
FoamFile
{
    version     2.0;
    format      ascii;
    class       volScalarField;
    location    "1027";
    object      T;
}
// * * * * * * * * * * * * * * * * * * * * * * * * * * * * * * * * * * * * * //

dimensions      [0 0 0 1 0 0 0];

internalField   nonuniform List<scalar> 
250000
(
0.00272521598359
0.00272459152168
0.002723346784
0.00272149281138
0.00271903793707
0.00271598327328
0.00271231835536
0.0027080170793
0.00270303434998
0.00269730381449
0.00269073691459
0.00268322334615
0.00267463286877
0.00266481827198
0.00265361918681
0.00264086634563
0.002626385849
0.00261000300271
0.0025915453413
0.00257084455312
0.00254773715465
0.00252206391385
0.00249366817324
0.00246239335457
0.00242808002294
0.00239056300656
0.00234966857341
0.00230521271338
0.00225700032533
0.00220482546332
0.00214847283818
0.00208772058138
0.0020223443355
0.00195212297249
0.00187684702314
0.00179633365793
0.00171046266124
0.00161903922863
0.00152177176761
0.00141842228652
0.00130883250465
0.00119294420828
0.00107081613949
0.000942638699895
0.00080874686695
0.000669630689018
0.000525941690918
0.000378492330077
0.000228243106454
7.62742381197e-05
0.00817689777342
0.00817495499555
0.00817108044204
0.00816531815397
0.00815769983577
0.00814823613231
0.00813690340324
0.00812363110926
0.00810829137105
0.00809069190768
0.00807057305575
0.00804760912867
0.0080214139394
0.00799154988956
0.00795753966464
0.00791887930888
0.00787505131516
0.0078255363761
0.00776982260652
0.00770741135105
0.00763781910339
0.00756057553576
0.00747521811008
0.0073812841515
0.00727830156658
0.00716577972961
0.00704320067167
0.00691001356537
0.00676563217034
0.00660943547464
0.00644077220588
0.00625896911481
0.00606334304791
0.00585321717944
0.00562794273667
0.00538693008625
0.00512970034223
0.00485587917096
0.00456454883114
0.00425497023012
0.00392664773995
0.00357938806407
0.00321334945495
0.0028290851777
0.00242758231126
0.00201029375305
0.00157915822942
0.00113659973992
0.000685493194139
0.00022908977236
0.0136387385416
0.0136352715397
0.0136283954331
0.0136181876305
0.0136047209398
0.0135880372343
0.0135681225716
0.0135448844709
0.0135181333843
0.0134875701046
0.0134527803035
0.0134132366728
0.0133683083818
0.0133172768195
0.0132593559461
0.0131937151056
0.0131195018937
0.013035862685
0.0129419586968
0.0128369759915
0.0127201285469
0.0125906543618
0.0124478054143
0.0122908330391
0.0121189708418
0.0119314178421
0.0117273223714
0.0115057716126
0.0112657865914
0.0110063228106
0.0107262776776
0.0104245043457
0.0100998316457
0.00975108994207
0.00937714299657
0.00897692522386
0.00854947654997
0.00809428021598
0.00760991655259
0.00709508193411
0.0065488848033
0.00597094758459
0.00536148483697
0.00472137397413
0.00405222021738
0.00335641146263
0.00263715415324
0.00189847672729
0.00114518364837
0.000382758631675
0.019132386736
0.0191271193925
0.0191166860711
0.0191012284149
0.0190808895547
0.0190557753183
0.0190259158241
0.018991230528
0.0189514996431
0.0189063445152
0.0188552187429
0.0187974107838
0.0187320576553
0.0186581682239
0.0185746536018
0.0184803614334
0.0183741104418
0.0182547215694
0.018121042422
0.0179719624772
0.0178064176011
0.0176233836944
0.0174218606233
0.0172008487888
0.0169593216087
0.0166961980583
0.0164103165736
0.016100417298
0.015765132902
0.0154029882128
0.0150124102236
0.0145917476629
0.0141392992289
0.0136533496801
0.0131322135193
0.0125742874477
0.0119781176954
0.0113425118543
0.010666151658
0.00994698337303
0.00918362234377
0.00837543527726
0.00752263360208
0.00662636889516
0.00568882444038
0.00471329474983
0.00370424062995
0.0026673031532
0.0016092597122
0.000537931184635
0.0246925221023
0.0246850897876
0.0246703883172
0.0246486511442
0.0246201290473
0.0245850345229
0.0245434865138
0.0244954599397
0.0244407441671
0.0243789140756
0.0243093162739
0.0242310715873
0.0241430933677
0.0240441196255
0.0239327556002
0.0238075223108
0.02366690597
0.0235094030049
0.0233335558321
0.0231379755101
0.0229213488477
0.0226824293747
0.0224200135481
0.0221329054299
0.0218198745709
0.0214796131774
0.0211106952922
0.0207115475303
0.0202804325022
0.019815445483
0.0193145262927
0.0187754849469
0.0181960392677
0.017573862506
0.0169066393905
0.0161921299534
0.0154282423239
0.0146131178683
0.0137454620627
0.0128224213315
0.0118420378643
0.0108033428261
0.00970647450235
0.00855280193702
0.00734504531369
0.0060873830102
0.00478553077305
0.00344677490418
0.00207994461299
0.000695342256084
0.0303673392691
0.0303573001458
0.0303374681637
0.0303082036826
0.0302699108226
0.0302229610231
0.0301676164575
0.0301039596275
0.0300318348981
0.0299508070354
0.0298601403201
0.0297587999233
0.0296454751574
0.0295186221361
0.0293765214998
0.0292173453278
0.029039226337
0.0288403220654
0.0286188670641
0.0283732072153
0.0281018121302
0.0278032640462
0.0274762244819
0.0271193827686
0.0267313930496
0.026310808497
0.025856017967
0.0253651981036
0.024836283807
0.0242669584997
0.0236546666139
0.0229966460143
0.0222899771783
0.0215316454747
0.0207186129789
0.0198478964644
0.018916647863
0.0179222330268
0.0168632371462
0.0157359655652
0.0145377920973
0.0132673146551
0.0119245161988
0.0105109215207
0.00902974906787
0.00748604924675
0.00588681381231
0.00424103741525
0.00255971739742
0.000855814948342
0.0362197801279
0.0362066092503
0.0361806228194
0.0361423507247
0.0360924054746
0.0360313800234
0.0359597443058
0.0358777492317
0.0357853460542
0.0356821280044
0.0355672991484
0.0354396730085
0.0352977008403
0.0351395267833
0.0349630646081
0.0347660886575
0.0345463299858
0.0343015678136
0.0340297063983
0.033728828421
0.0333972180831
0.0330333502717
0.0326358461574
0.0322033999715
0.0317346858527
0.0312282573022
0.0306824486981
0.0300952970047
0.0294644899933
0.028787344294
0.0280608163686
0.0272815429402
0.0264459056275
0.0255501136972
0.0245902990487
0.0235626177737
0.0224633500294
0.0212889738046
0.0200374610155
0.0187044719706
0.0172865512391
0.0157817309477
0.0141897415172
0.0125121983705
0.0107527854967
0.00891742865939
0.00701444113492
0.00505462096381
0.00305128322998
0.0010202472586
0.0423297553326
0.0423128335053
0.0422794857766
0.0422304625998
0.0421666506555
0.0420889388255
0.0419980809466
0.0418945671024
0.04177851409
0.0416495843077
0.0415069398648
0.0413492357325
0.0411746524859
0.0409809658618
0.0407656471593
0.0405259856161
0.0402592214736
0.0399626766975
0.0396338695096
0.0392705993204
0.0388709906481
0.0384334883708
0.0379568021284
0.0374398043918
0.0368813936969
0.0362803410089
0.035635135723
0.0349438575964
0.0342040872559
0.0334128623447
0.032566683517
0.0316615649929
0.0306931210095
0.0296566782567
0.0285474054564
0.0273604542099
0.0260911110176
0.0247349771809
0.0232882650981
0.0217467043578
0.0201056575676
0.0183624188307
0.0165163586512
0.0145691184916
0.0125248242853
0.0103902981942
0.00817524586739
0.00589239332751
0.00355754971415
0.00118960518544
0.0487977326605
0.0487763314895
0.0487342033763
0.0486723802692
0.0485921014287
0.0484946401456
0.0483811243147
0.0482523662301
0.0481087155805
0.0479499478242
0.047775197154
0.0475829397163
0.0473710288904
0.0471367804696
0.0468771016493
0.0465886539297
0.0462680364694
0.0459119732931
0.0455174853971
0.0450820277754
0.0446035724292
0.0440806222585
0.0435121478106
0.0428974489256
0.0422359551236
0.0415269903543
0.0407695303125
0.0399619923348
0.0391020822471
0.0381867124608
0.0372119974909
0.0361733184752
0.0350654419248
0.0338826758551
0.0326190483823
0.0312684983838
0.0298250734866
0.0282831355409
0.0266375672349
0.0248831184828
0.0230139430789
0.0210264834333
0.0189196523955
0.0166950582162
0.0143572560288
0.0119140034715
0.00937649310005
0.00675952864808
0.00408160957664
0.00136491694011
0.0557501614783
0.0557234256636
0.0556708513452
0.0555938243954
0.0554940299541
0.0553732311319
0.0552330373556
0.0550746819357
0.0548988267868
0.0547054100176
0.0544935486451
0.0542615046662
0.0540067184059
0.0537259086155
0.0534152342394
0.0530705080263
0.0526874471672
0.0522619409298
0.0517903102147
0.051269529901
0.0506973831572
0.0500725193082
0.0493943950174
0.0486630931428
0.0478790334339
0.0470426110283
0.046153810299
0.045211858103
0.044214962793
0.0431601671978
0.0420433252835
0.0408591882268
0.0396015738312
0.0382635898514
0.036837885491
0.0353169129082
0.0336931887377
0.0319595514664
0.0301094111127
0.0281358707712
0.0260316651022
0.0237922292477
0.0214159084345
0.0189042181215
0.0162621385152
0.0134984177046
0.0106258499636
0.00766148652304
0.00462672752279
0.00154726822699
0.0633473793702
0.0633143077389
0.0632493376435
0.0631542945043
0.0630314200619
0.0628830929652
0.062711533132
0.0625185142168
0.0623051066072
0.0620714707551
0.0618167167843
0.061538842008
0.0612347535313
0.0609003785749
0.0605308603813
0.0601208321631
0.0596647550485
0.0591572980266
0.0585937285956
0.05797027316
0.0572843983898
0.056534962229
0.0557221901568
0.0548474519835
0.0539128470298
0.0529206461155
0.0518726698028
0.0507697104923
0.0496110868758
0.0483943860066
0.0471154090144
0.0457682945095
0.0443457720457
0.0428394932122
0.0412403959479
0.0395390719269
0.0377261215582
0.0357924920951
0.033729799564
0.0315287759066
0.0291804708633
0.0266791198006
0.0240223716177
0.0212115838421
0.0182521623009
0.0151539126638
0.0119313617182
0.00860399310444
0.0051963273552
0.00173779751879
0.0717949338369
0.071754360802
0.0716747253019
0.0715583926982
0.0714082920144
0.071227567141
0.0710192038384
0.0707856620197
0.0705285405856
0.070248299088
0.0699440563659
0.0696134820124
0.069252792452
0.068856859514
0.0684194352881
0.0679334918626
0.0673916670946
0.0667867965901
0.0661124968125
0.0653637452101
0.064537383294
0.0636324536276
0.0626502805844
0.0615942270974
0.060469110925
0.0592803392737
0.0580328931982
0.0567303506696
0.0553741200402
0.0539629928746
0.0524930429924
0.0509578209006
0.0493487534931
0.0476556538755
0.0458672645023
0.0439717847908
0.0419573616851
0.0398125418155
0.0375266919406
0.0350872816493
0.0324833603904
0.0297077330898
0.0267571988834
0.0236328803348
0.0203406085742
0.0168913212005
0.013301419589
0.00959301535665
0.00579397473232
0.00193768989162
0.0813596902654
0.0813102702844
0.0812133490259
0.0810719480279
0.0808898363516
0.0806711003598
0.080419678722
0.0801388973915
0.0798310367219
0.0794969594966
0.0791358243709
0.078744905381
0.0783195352081
0.0778531878274
0.0773377143629
0.0767637429533
0.0761212469305
0.0754002727069
0.0745917965881
0.0736886467694
0.0726863851351
0.0715840015173
0.0703842473154
0.0690934488665
0.0677207148735
0.0662765896594
0.0647713656101
0.0632133997858
0.0616077771445
0.0599555388136
0.0582535190222
0.0564946839273
0.0546687959059
0.0527632278107
0.0507637942799
0.0486555225458
0.0464233356168
0.0440526589374
0.0415299805123
0.0388384027799
0.0359646006483
0.0328996693636
0.0296393688703
0.0261844880197
0.0225412742661
0.0187218725579
0.0147447072488
0.0106347201537
0.00642335104133
0.00214816797759
0.0923927608431
0.0923329602075
0.0922157653537
0.0920449860532
0.0918254071645
0.0915622648948
0.0912606746257
0.0909250500287
0.0905585500912
0.090162586728
0.0897364213099
0.0892768754011
0.0887781800428
0.0882319893061
0.0876275868589
0.086952317014
0.0861922705092
0.0853332446465
0.0843619704231
0.0832675491059
0.0820429645438
0.0806864429887
0.0792023451619
0.077601243909
0.0758989258741
0.0741142965275
0.0722665196615
0.0703720442378
0.068442227836
0.0664820052037
0.0644896646759
0.062457493564
0.0603729362806
0.0582199378695
0.0559802450948
0.053634545975
0.0511634177288
0.0485481231393
0.0457713635798
0.0428105494319
0.0396495391711
0.0362773689512
0.0326885138598
0.0288832934765
0.0248683433802
0.0206570850077
0.0162701152347
0.011735411371
0.00708821461301
0.00237047882777
0.105362292227
0.105290395606
0.10514958326
0.104944599011
0.104681440828
0.104366732589
0.104007030268
0.103608106436
0.103174253044
0.102707637559
0.102207742931
0.101670919785
0.101090081023
0.100454575662
0.0997502899595
0.0989600379088
0.0980643153865
0.0970424940831
0.0958745093884
0.0945430329902
0.0930359988827
0.0913491659014
0.0894881790168
0.0874694208393
0.0853189725754
0.0830693877186
0.0807547332724
0.0784051727387
0.0760426343859
0.0736785130661
0.0713134605896
0.068938700632
0.0665381300509
0.0640905948791
0.0615719612928
0.0589568126098
0.0562197466747
0.0533363425228
0.0502840483098
0.0470331857702
0.0435642677748
0.0398638034722
0.035924646675
0.0317464542396
0.0273361895283
0.0227086051699
0.017886616127
0.0129014404721
0.0077923468256
0.00260587590741
0.120900673034
0.120814817421
0.120646751623
0.12040230757
0.120088909488
0.119714832994
0.119288377823
0.118817000915
0.118306451159
0.117759940637
0.117177381609
0.116554716906
0.115883376054
0.115149902552
0.114335820678
0.113417842734
0.112368556045
0.111157762921
0.109754655398
0.108130954476
0.106264982367
0.104146318583
0.101780211643
0.0991903892406
0.0964186385212
0.0935199984157
0.09055395407
0.0875741739036
0.0846203689907
0.0817143427214
0.0788601134453
0.0760467190432
0.0732521465202
0.0704472567171
0.067599109638
0.0646734996653
0.0616367199916
0.058456570426
0.0551021986099
0.0515362483483
0.0477350943091
0.0436820153587
0.0393677665283
0.0347910670977
0.0299591027305
0.0248879896726
0.0196030979427
0.0141390892077
0.00853948243172
0.00285559602813
0.139873049489
0.139771306764
0.13957221717
0.139282851963
0.13891227784
0.138470700238
0.137968496186
0.137415184296
0.136818371788
0.136182709023
0.135508874178
0.134792607983
0.134023824524
0.133185843074
0.132254822218
0.131199535277
0.129981706503
0.128557224447
0.126878638686
0.124899374313
0.122579964401
0.11989615693
0.116847856976
0.113466539647
0.109817500953
0.105993334704
0.10209792968
0.0982260361888
0.0944474084205
0.090800146229
0.0872922166024
0.0839076112552
0.0806138397636
0.0773687424145
0.0741258055182
0.0708379165654
0.0674598552698
0.0639499655384
0.0602598962765
0.0563492381229
0.0521878016335
0.0477545018893
0.0430373443725
0.0380337420731
0.0327509434511
0.0272064323454
0.0214281586778
0.0154544267334
0.00933322556036
0.00312083171049
0.163477615014
0.163358158224
0.163124459683
0.1627849588
0.16235056019
0.161833665847
0.161247070533
0.160602766651
0.159910693457
0.159177451497
0.158404990647
0.157589273294
0.156718917668
0.155773846611
0.154724013046
0.153528356951
0.152134283366
0.150478147155
0.148487480942
0.146085953508
0.143202143406
0.139782838429
0.135810225663
0.131319538776
0.126409749446
0.121237175252
0.115985945224
0.110824607637
0.105873992138
0.101196668874
0.0968031414532
0.0926655826538
0.0887322308714
0.084939130893
0.0812184210263
0.0775036084515
0.0737326695451
0.0698497743515
0.0657885128023
0.0614999619495
0.0569467394582
0.0521024739826
0.0469517084373
0.0414900985587
0.0357247377071
0.0296744483373
0.0233698708534
0.0168531474126
0.0101769551007
0.00340270019916
0.193393668166
0.193255078927
0.192983964732
0.192590207638
0.192086684543
0.191488203473
0.190810276852
0.190067774399
0.189273481606
0.188436568994
0.187560957297
0.186643547953
0.185672281916
0.184624000804
0.183462126266
0.182134268018
0.180570051785
0.178679772066
0.176354970869
0.173472737552
0.169906295226
0.165544817386
0.160324270895
0.154266438276
0.147513267881
0.140330695848
0.133054789962
0.125991367302
0.119348320805
0.113222044636
0.107617905432
0.102480987524
0.0977235522102
0.0932447680231
0.0889430214744
0.0847227192761
0.0804975918688
0.0761921268028
0.071717779241
0.0670138530112
0.0620339331203
0.0567450483044
0.0511273660534
0.0451742129117
0.0388922375548
0.0323015345546
0.0254355306624
0.0183403993616
0.0110737253115
0.00370221103811
0.232002011482
0.231843821374
0.23153431134
0.231084776991
0.230510076902
0.229827500734
0.229055452738
0.228211987411
0.227313210423
0.226371528644
0.22539370259
0.224378624302
0.223314717207
0.222176839081
0.22092257938
0.219487906457
0.217782292896
0.215683826033
0.213035555153
0.209645657202
0.205296107167
0.199767213268
0.192887069924
0.184610977801
0.175116750346
0.164858953074
0.154480855194
0.144554270908
0.135433717717
0.127253217257
0.119988264503
0.113523793393
0.10770506173
0.102369064
0.0973612045358
0.092542652631
0.0877925330876
0.0830079480896
0.0780731893497
0.0729124919892
0.0674679800554
0.0616983688076
0.0555782988962
0.0490980569685
0.0422634805468
0.0350958327886
0.0276314111557
0.0199206169074
0.0120261692141
0.00402023465563
0.282715598958
0.282539213957
0.282193948089
0.281692305972
0.281050916301
0.280289370862
0.279428871591
0.278490711752
0.277494587792
0.276456700754
0.275387563907
0.274289383551
0.273152823049
0.271952897583
0.270643686378
0.269151511704
0.267366275469
0.265130893774
0.262229506987
0.258376924122
0.25321556211
0.246333267703
0.237326245252
0.225940382664
0.212307482868
0.197191141261
0.18191691333
0.167594095703
0.154811013683
0.143712467089
0.134176603908
0.125959652001
0.118784298652
0.112384555681
0.106524293826
0.101001896857
0.0956482424822
0.0903210803509
0.0848740138427
0.0792121175822
0.0732629393275
0.066974756895
0.0603153016214
0.0532709815278
0.045846389841
0.0380638268485
0.0299625419851
0.0215973719668
0.0130364132974
0.00435747470797
0.350479040379
0.350289295537
0.349917536493
0.349377008084
0.348685539538
0.347864405263
0.346937015084
0.345927437581
0.34485873348
0.343751034529
0.342619251149
0.341470222127
0.340299026826
0.339084056072
0.337780270219
0.336309852265
0.33454919755
0.332310938397
0.329319733018
0.325181591776
0.319350499451
0.311107501207
0.299594929445
0.284002143268
0.264061795948
0.240924485121
0.217646279295
0.196452347553
0.178238177555
0.163022876385
0.150420837565
0.139925410423
0.131042803563
0.123342138187
0.116465971206
0.110124862908
0.104087136182
0.0981457111319
0.0921313662987
0.0859222933274
0.0794273836805
0.0725820090311
0.0653454473166
0.0576993052918
0.049646459441
0.0412101061139
0.0324325385604
0.0233732593919
0.0141060120063
0.00471444689959
0.442527622412
0.442335319172
0.441957903204
0.44140849577
0.440705006945
0.439869058797
0.43892483363
0.437897773508
0.436813088061
0.435693993935
0.434559552089
0.433421883979
0.432282425989
0.431126701214
0.429916810046
0.428580402576
0.426994194757
0.424958979056
0.422161400239
0.418115584639
0.41207628635
0.402920374705
0.38902605856
0.368301354966
0.338865859597
0.301558631677
0.264649841794
0.232602031035
0.206411731137
0.185508689455
0.16887212227
0.155492369293
0.144514811658
0.13525850135
0.127194043364
0.119913343972
0.113102310172
0.106481198959
0.0998464086274
0.0930449813615
0.0859637921605
0.0785229576069
0.0706717579838
0.0623860644198
0.0536665642769
0.0445372239947
0.0350435004759
0.0252498292327
0.0152359092663
0.00509146659747
0.569545072609
0.569371056654
0.569028436244
0.56852879326
0.567888187341
0.56712612003
0.566264734536
0.565327857241
0.56433985876
0.563324277477
0.562302084986
0.561289385674
0.560294216897
0.559311919847
0.55831822587
0.557258638616
0.556031672284
0.554461589797
0.55225256036
0.548908747202
0.543590118074
0.53484628739
0.520131761125
0.495024915703
0.452624049403
0.387262159404
0.326183389747
0.277150533911
0.239642570716
0.211218001994
0.189504338869
0.172621081543
0.159164686363
0.148104989111
0.138685987363
0.130349189913
0.122678332376
0.115316236038
0.108011042919
0.100574547055
0.0928684492612
0.0847953775711
0.0762931335774
0.0673309606627
0.0579069225737
0.0480456709558
0.0377959928421
0.0272275747695
0.016426431974
0.00548864681065
0.74742962608
0.747313081728
0.747077993982
0.74673459591
0.74629382542
0.745768787718
0.745174592763
0.744527893247
0.74384625063
0.743147359267
0.742448054756
0.741762966579
0.74110258964
0.740470410736
0.7398584862
0.739240428956
0.738559916898
0.737711095319
0.736503415194
0.734594338433
0.731349795964
0.725525890212
0.714461788585
0.691799617629
0.64036108007
0.508003899145
0.403578325477
0.329562871039
0.2772802322
0.239684999564
0.212018511975
0.191122899498
0.174871305238
0.161801299034
0.150886569688
0.141393243355
0.132787810003
0.124628861898
0.116608332018
0.10849814191
0.100131755123
0.0913922361693
0.0822045526919
0.0725305210341
0.0623652206382
0.0517339694687
0.0406891156171
0.0293059795895
0.0176773172611
0.00590590710547
1
1
1
1
1
1
1
1
1
1
1
1
1
1
1
1
1
1
1
1
1
1
1
1
1
0.661309175463
0.489162797037
0.385408254334
0.317091240931
0.269775011168
0.23581086455
0.210657761468
0.191431650887
0.176219201014
0.163710446974
0.152986046007
0.143387684764
0.13438652692
0.12561331004
0.116796537892
0.107738935424
0.0983022680111
0.0883975303716
0.0779784578931
0.0670368916693
0.0555988846881
0.0437206565183
0.0314836207755
0.0189877718621
0.00634299291711
1
1
1
1
1
1
1
1
1
1
1
1
1
1
1
1
1
1
1
1
1
1
1
1
1
0.733224888865
0.554007155695
0.435659020361
0.355632006155
0.299944765828
0.260103019704
0.230796789777
0.208591896924
0.191198868485
0.177051287346
0.165053364058
0.154423929241
0.144548594788
0.134994768869
0.125445507537
0.115671125117
0.105510829169
0.094860790707
0.0836661955562
0.0719155227999
0.0596357318726
0.0468873141192
0.0337583193938
0.0203565586219
0.00679950366265
1
1
1
1
1
1
1
1
1
1
1
1
1
1
1
1
1
1
1
1
1
1
1
1
1
0.773441198571
0.60138238523
0.478194187099
0.391082191865
0.329060654328
0.284220150153
0.251131871439
0.226096307412
0.206573105612
0.190794925785
0.177514015296
0.165836759872
0.155069735662
0.144717626137
0.134417573697
0.123906706637
0.113000939524
0.101581084557
0.0895835105261
0.0769933507629
0.0638387515467
0.050184970664
0.0361273248074
0.0217821025454
0.00727492721755
1
1
1
1
1
1
1
1
1
1
1
1
1
1
1
1
1
1
1
1
1
1
1
1
1
0.79950551583
0.637109921442
0.513875331106
0.423025610995
0.356565443134
0.307718130749
0.27134747694
0.243726237325
0.222189066743
0.204832064148
0.190287742821
0.17756580639
0.165903442637
0.154745428449
0.143683868774
0.132422734945
0.120754396278
0.10854406692
0.0957192217727
0.0822617988753
0.0682015177121
0.0536089900206
0.0385875165636
0.0232626071937
0.00776867779729
1
1
1
1
1
1
1
1
1
1
1
1
1
1
1
1
1
1
1
1
1
1
1
1
1
0.818372045998
0.665305189125
0.544181152238
0.451727828263
0.382317229479
0.330371243949
0.291237680016
0.26131754964
0.237921192929
0.219067223155
0.203301370571
0.189554389739
0.177005092537
0.165042614347
0.153215860644
0.141196285871
0.128752842984
0.115735149081
0.102061867531
0.0877120076217
0.0727173437514
0.0571545154654
0.0411356069718
0.0247961718149
0.00828013414124
1
1
1
1
1
1
1
1
1
1
1
1
1
1
1
1
1
1
1
1
1
1
1
1
1
0.833133998109
0.688519273271
0.570423537577
0.477670493606
0.406397392408
0.352107637225
0.310690003888
0.278760352699
0.253675134064
0.233423074498
0.216492519882
0.201752432006
0.188334209627
0.175576295075
0.162986774238
0.150205604237
0.136978702199
0.123140255513
0.108600314592
0.0933353172346
0.0773796545467
0.0608167443771
0.0437683288704
0.0263809002903
0.00880867510498
1
1
1
1
1
1
1
1
1
1
1
1
1
1
1
1
1
1
1
1
1
1
1
1
1
0.845321243755
0.70830873406
0.593599144708
0.50133950934
0.428979472412
0.372945823183
0.329658912089
0.295989644264
0.269385574685
0.247840969999
0.229810967894
0.214117930076
0.199855837277
0.186317461243
0.17297262817
0.159430983573
0.145415914874
0.130746438408
0.115324261446
0.0991236711229
0.0821823004006
0.0645911615699
0.0464825959687
0.0280149945389
0.00935371025359
1
1
1
1
1
1
1
1
1
1
1
1
1
1
1
1
1
1
1
1
1
1
1
1
1
0.855765110066
0.725643886218
0.614429196255
0.523152860069
0.450258504062
0.392949492845
0.348141549581
0.312973672927
0.285011257578
0.262279213183
0.243218400736
0.22661733042
0.211541152288
0.197241657577
0.183152887916
0.168855361904
0.154050464724
0.138542326917
0.122224613661
0.105069921066
0.0871197968367
0.0684737188009
0.0492756268752
0.0296968270777
0.00991470370136
1
1
1
1
1
1
1
1
1
1
1
1
1
1
1
1
1
1
1
1
1
1
1
1
1
0.864957609796
0.74115326977
0.633432760183
0.543449649603
0.470419564871
0.412200463108
0.366159916237
0.329703617816
0.300529512606
0.276710407472
0.256687302421
0.239225204248
0.223367531628
0.208329232202
0.193510786382
0.178464654693
0.16287069291
0.146518408387
0.129293725015
0.111168026404
0.0921874826696
0.0724609538823
0.052145027816
0.0314249896327
0.0104911901472
1
1
1
1
1
1
1
1
1
1
1
1
1
1
1
1
1
1
1
1
1
1
1
1
1
0.873218700959
0.755267321186
0.650991605048
0.562501485345
0.489627580752
0.430784611804
0.383749386575
0.346185793315
0.315931466769
0.291118718855
0.270199499063
0.25192354354
0.235318267973
0.219565278394
0.204033381083
0.188247864479
0.17186742476
0.154667152693
0.136525509256
0.117413148515
0.0973815957471
0.0765500480006
0.0550888325711
0.0331983167279
0.0110827827153
1
1
1
1
1
1
1
1
1
1
1
1
1
1
1
1
1
1
1
1
1
1
1
1
1
0.880794778333
0.76830928619
0.667400654308
0.58052971426
0.508027236802
0.448785751141
0.400952031854
0.362436313795
0.33121831515
0.305497465397
0.28374468649
0.264700905246
0.247382088192
0.230939371599
0.214711415403
0.198197011145
0.181033937081
0.162982998206
0.143915434405
0.123801648113
0.102699270953
0.0807388238745
0.0581055010026
0.0350158848626
0.0116891727638
1
1
1
1
1
1
1
1
1
1
1
1
1
1
1
1
1
1
1
1
1
1
1
1
1
0.887970988542
0.780561392739
0.682905449428
0.597721623211
0.525746665588
0.466283705512
0.417813054605
0.378477663892
0.34639860597
0.31984716616
0.297319108982
0.277551550647
0.259552586981
0.242445181704
0.225539039865
0.208306922378
0.190365794653
0.171462220366
0.151460415035
0.13033099657
0.108138468407
0.0850256901608
0.0611938796046
0.0368769891428
0.0123101222441
1
1
1
1
1
1
1
1
1
1
1
1
1
1
1
1
1
1
1
1
1
1
1
1
1
0.894629270409
0.792288500999
0.697722698575
0.614241613653
0.542901240077
0.483354100779
0.434378962373
0.39433654432
0.361486319249
0.33417402868
0.310924456114
0.290474671899
0.271827651981
0.254080014577
0.236513432251
0.218574914505
0.199860580553
0.180102703102
0.159158618833
0.136999614082
0.11369784163
0.089409539189
0.0643531288249
0.0387811000674
0.0129454494803
1
1
1
1
1
1
1
1
1
1
1
1
1
1
1
1
1
1
1
1
1
1
1
1
1
0.900750653534
0.803336678423
0.712045979337
0.630236301204
0.559595586261
0.500068397445
0.450696547514
0.41004247012
0.376499482383
0.348488780789
0.324566990701
0.303473786272
0.284208931784
0.265844307587
0.247634334283
0.229000382273
0.209517539688
0.188903631429
0.167009203494
0.143806647963
0.119376556173
0.0938896059408
0.0675826226381
0.0407278036715
0.0135950094116
1
1
1
1
1
1
1
1
1
1
1
1
1
1
1
1
1
1
1
1
1
1
1
1
1
0.906411375788
0.813660152849
0.725790569752
0.645834748332
0.575922746547
0.516493576812
0.46681220458
0.425626763625
0.391459079497
0.362805703264
0.338256892914
0.316556470448
0.296701374539
0.27774105886
0.258903496143
0.239584305425
0.219337151269
0.197865122287
0.175011999437
0.150751704181
0.125174069361
0.0984652964626
0.0708818261762
0.0427167284739
0.0142586694365
1
1
1
1
1
1
1
1
1
1
1
1
1
1
1
1
1
1
1
1
1
1
1
1
1
0.911669091709
0.823338278128
0.738808323138
0.661061653017
0.59195773952
0.532692346307
0.482771653926
0.441121729111
0.40638800785
0.377141610175
0.352007696067
0.329735071705
0.309312755641
0.289775072126
0.270323990497
0.250328677098
0.229320647728
0.206987811491
0.183167153674
0.157834544805
0.131089881447
0.103135993828
0.0742501572822
0.0447474627733
0.0149362820368
1
1
1
1
1
1
1
1
1
1
1
1
1
1
1
1
1
1
1
1
1
1
1
1
1
0.916569614035
0.832436633518
0.751162108884
0.67565017979
0.607809121588
0.548731419727
0.498620410656
0.456559721102
0.421309781635
0.391514229705
0.365834845665
0.343031167393
0.322052355446
0.301951690474
0.281899358018
0.26123588115
0.239469508322
0.216272417195
0.191474749379
0.165054762448
0.137123267778
0.107900849526
0.0776868378248
0.0468194658681
0.01562765538
1
1
1
1
1
1
1
1
1
1
1
1
1
1
1
1
1
1
1
1
1
1
1
1
1
0.921150452785
0.841010579032
0.762909658567
0.689662888747
0.623234528759
0.564667434463
0.51439909439
0.471971022673
0.436246837617
0.405939280812
0.379746896833
0.356441624494
0.334923169343
0.314274649897
0.293632730426
0.272308116431
0.249784966265
0.225719291851
0.199934407559
0.172411439808
0.143272998885
0.112758566691
0.0811907402473
0.0489319767789
0.0163325231032
1
1
1
1
1
1
1
1
1
1
1
1
1
1
1
1
1
1
1
1
1
1
1
1
1
0.925442584718
0.849105788022
0.774095493268
0.70312539827
0.638180078522
0.580402704868
0.5301383411
0.487382212056
0.45122003297
0.420430987103
0.393748995024
0.369953266421
0.347925280213
0.326746774961
0.305526733508
0.283547032954
0.26026758081
0.235328008538
0.20854491121
0.179902822004
0.149537069568
0.117707188667
0.0847602366744
0.0510839241478
0.0170505144695
1
1
1
1
1
1
1
1
1
1
1
1
1
1
1
1
1
1
1
1
1
1
1
1
1
0.929471878198
0.856760450655
0.784756871029
0.716063632542
0.652661189522
0.595768535518
0.545850492926
0.502817323587
0.46624968516
0.435004964129
0.407854204388
0.383584761321
0.361066254909
0.339372320614
0.317583743168
0.294953459223
0.270916828312
0.245096932283
0.217303808301
0.187525975204
0.155912421821
0.122743888351
0.088393052465
0.0532738402159
0.0177811259868
1
1
1
1
1
1
1
1
1
1
1
1
1
1
1
1
1
1
1
1
1
1
1
1
1
0.93326020807
0.864007030677
0.794925983132
0.728501928536
0.666693606228
0.610777347766
0.561329812633
0.518310794107
0.481356099565
0.44967587944
0.422074883993
0.397347782915
0.374353258366
0.352155158527
0.329805195483
0.306526848343
0.281730593512
0.255022757359
0.226207009478
0.195276452652
0.162394680676
0.127864770966
0.0920861308552
0.0554997821703
0.0185236957349
1
1
1
1
1
1
1
1
1
1
1
1
1
1
1
1
1
1
1
1
1
1
1
1
1
0.936826265508
0.870873401678
0.804630704945
0.740461541178
0.68028900742
0.625428636444
0.576548724486
0.533725240117
0.496551222384
0.464453288813
0.436420018335
0.411250080101
0.387791310662
0.365097422121
0.342190667279
0.318264660712
0.292704634628
0.265100057059
0.235248419782
0.203148004026
0.168977934361
0.133064716353
0.0958355282114
0.057759272355
0.0192773833977
1
1
1
1
1
1
1
1
1